coen3 b3lyp/sto-3G                                                      
SP        RB3LYP                                                      STO-3G              
Number of atoms                            I               37
Info1-9                                    I   N=           9
          47          46           0           0           0         110
           1          18        -502
Full Title                                 C   N=           2
coen3 b3lyp/sto-3G      
Route                                      C   N=           2
#p b3lyp/sto-3g         
Charge                                     I                3
Multiplicity                               I                1
Number of electrons                        I              126
Number of alpha electrons                  I               63
Number of beta electrons                   I               63
Number of basis functions                  I              102
Number of independent functions            I              102
Number of point charges in /Mol/           I                0
Number of translation vectors              I                0
Atomic numbers                             I   N=          37
          27           7           1           7           1           1
           7           1           7           1           1           7
           1           7           1           1           1           1
           1           6           1           1           6           1
           1           6           1           1           6           1
           1           6           1           1           6           1
           1
Nuclear charges                            R   N=          37
  2.70000000E+01  7.00000000E+00  1.00000000E+00  7.00000000E+00  1.00000000E+00
  1.00000000E+00  7.00000000E+00  1.00000000E+00  7.00000000E+00  1.00000000E+00
  1.00000000E+00  7.00000000E+00  1.00000000E+00  7.00000000E+00  1.00000000E+00
  1.00000000E+00  1.00000000E+00  1.00000000E+00  1.00000000E+00  6.00000000E+00
  1.00000000E+00  1.00000000E+00  6.00000000E+00  1.00000000E+00  1.00000000E+00
  6.00000000E+00  1.00000000E+00  1.00000000E+00  6.00000000E+00  1.00000000E+00
  1.00000000E+00  6.00000000E+00  1.00000000E+00  1.00000000E+00  6.00000000E+00
  1.00000000E+00  1.00000000E+00
Current cartesian coordinates              R   N=         111
  5.48020576E-05  5.94696811E-03  4.04401391E-04 -1.76895940E+00 -2.60374402E+00
 -2.10730730E+00 -9.63346474E-01 -4.35515353E+00 -1.94697916E+00 -3.10123710E+00
 -1.97155127E-01  2.16873663E+00 -2.76536663E+00 -2.28057818E-01  4.07453487E+00
 -4.24882998E+00  1.34326835E+00  1.93562190E+00  1.77604587E+00 -2.59881184E+00
  2.10840334E+00  1.71399293E+00 -2.24753065E+00  4.01037111E+00  3.10173599E+00
 -1.89036863E-01 -2.16793916E+00  2.76632094E+00 -2.18072505E-01 -4.07385079E+00
  4.24692325E+00  1.35285115E+00 -1.93267393E+00  1.47513344E+00  2.82396326E+00
  2.06558971E+00  5.36629307E-01  3.02603545E+00  3.74600977E+00 -1.48248259E+00
  2.81992491E+00 -2.06503035E+00 -5.46159196E-01  3.02270386E+00 -3.74656724E+00
 -3.32422101E+00  2.56899763E+00 -2.60103605E+00 -1.70517169E+00 -2.25500640E+00
 -4.00969081E+00  9.73052107E-01 -4.35175014E+00  1.95161466E+00  3.31684162E+00
  2.57715369E+00  2.60366654E+00 -4.51283039E+00 -2.82899560E+00 -1.33548268E+00
 -5.58379110E+00 -1.34647333E+00 -2.30011417E+00 -5.29619935E+00 -4.64156420E+00
 -1.94740812E+00 -4.62108524E+00 -2.52625013E+00  1.50977590E+00 -3.78069569E+00
 -4.14478544E+00  2.48363303E+00 -6.56505218E+00 -2.34363645E+00  2.18932708E+00
  1.26308349E+00  5.30420234E+00  6.63223950E-01  1.45074842E+00  6.89829026E+00
  1.96615799E+00  2.82340390E+00  5.42897340E+00 -6.88202350E-01 -1.27437650E+00
  5.30154916E+00 -6.64448492E-01 -1.46484577E+00  6.89438042E+00 -1.96850125E+00
 -2.83483485E+00  5.42460624E+00  6.86998594E-01  4.51959183E+00 -2.82028963E+00
  1.33390854E+00  5.58937146E+00 -1.33655982E+00  2.29802035E+00  5.30587664E+00
 -4.63198329E+00  1.94462834E+00  4.62519918E+00 -2.51635931E+00 -1.51132926E+00
  3.78635353E+00 -4.13560137E+00 -2.48530355E+00  6.56842723E+00 -2.33075986E+00
 -2.19221081E+00
Number of symbols in /Mol/                 I                0
Force Field                                I                0
Atom Types                                 C   N=          37
                                                            
                                                            
                                                            
                                                            
                                                            
                                                            
                                                            
                        
Int Atom Types                             I   N=          37
           0           0           0           0           0           0
           0           0           0           0           0           0
           0           0           0           0           0           0
           0           0           0           0           0           0
           0           0           0           0           0           0
           0           0           0           0           0           0
           0
MM charges                                 R   N=          37
  0.00000000E+00  0.00000000E+00  0.00000000E+00  0.00000000E+00  0.00000000E+00
  0.00000000E+00  0.00000000E+00  0.00000000E+00  0.00000000E+00  0.00000000E+00
  0.00000000E+00  0.00000000E+00  0.00000000E+00  0.00000000E+00  0.00000000E+00
  0.00000000E+00  0.00000000E+00  0.00000000E+00  0.00000000E+00  0.00000000E+00
  0.00000000E+00  0.00000000E+00  0.00000000E+00  0.00000000E+00  0.00000000E+00
  0.00000000E+00  0.00000000E+00  0.00000000E+00  0.00000000E+00  0.00000000E+00
  0.00000000E+00  0.00000000E+00  0.00000000E+00  0.00000000E+00  0.00000000E+00
  0.00000000E+00  0.00000000E+00
Integer atomic weights                     I   N=          37
          59          14           1          14           1           1
          14           1          14           1           1          14
           1          14           1           1           1           1
           1          12           1           1          12           1
           1          12           1           1          12           1
           1          12           1           1          12           1
           1
Real atomic weights                        R   N=          37
  5.89331978E+01  1.40030740E+01  1.00782504E+00  1.40030740E+01  1.00782504E+00
  1.00782504E+00  1.40030740E+01  1.00782504E+00  1.40030740E+01  1.00782504E+00
  1.00782504E+00  1.40030740E+01  1.00782504E+00  1.40030740E+01  1.00782504E+00
  1.00782504E+00  1.00782504E+00  1.00782504E+00  1.00782504E+00  1.20000000E+01
  1.00782504E+00  1.00782504E+00  1.20000000E+01  1.00782504E+00  1.00782504E+00
  1.20000000E+01  1.00782504E+00  1.00782504E+00  1.20000000E+01  1.00782504E+00
  1.00782504E+00  1.20000000E+01  1.00782504E+00  1.00782504E+00  1.20000000E+01
  1.00782504E+00  1.00782504E+00
Atom fragment info                         I   N=          37
           0           0           0           0           0           0
           0           0           0           0           0           0
           0           0           0           0           0           0
           0           0           0           0           0           0
           0           0           0           0           0           0
           0           0           0           0           0           0
           0
Atom residue num                           I   N=          37
           0           0           0           0           0           0
           0           0           0           0           0           0
           0           0           0           0           0           0
           0           0           0           0           0           0
           0           0           0           0           0           0
           0           0           0           0           0           0
           0
Nuclear spins                              I   N=          37
           7           2           1           2           1           1
           2           1           2           1           1           2
           1           2           1           1           1           1
           1           0           1           1           0           1
           1           0           1           1           0           1
           1           0           1           1           0           1
           1
Nuclear ZEff                               R   N=          37
 -2.53800000E+01 -4.55000000E+00 -1.00000000E+00 -4.55000000E+00 -1.00000000E+00
 -1.00000000E+00 -4.55000000E+00 -1.00000000E+00 -4.55000000E+00 -1.00000000E+00
 -1.00000000E+00 -4.55000000E+00 -1.00000000E+00 -4.55000000E+00 -1.00000000E+00
 -1.00000000E+00 -1.00000000E+00 -1.00000000E+00 -1.00000000E+00 -3.60000000E+00
 -1.00000000E+00 -1.00000000E+00 -3.60000000E+00 -1.00000000E+00 -1.00000000E+00
 -3.60000000E+00 -1.00000000E+00 -1.00000000E+00 -3.60000000E+00 -1.00000000E+00
 -1.00000000E+00 -3.60000000E+00 -1.00000000E+00 -1.00000000E+00 -3.60000000E+00
 -1.00000000E+00 -1.00000000E+00
Nuclear ZNuc                               R   N=          37
  2.70000000E+01  7.00000000E+00  1.00000000E+00  7.00000000E+00  1.00000000E+00
  1.00000000E+00  7.00000000E+00  1.00000000E+00  7.00000000E+00  1.00000000E+00
  1.00000000E+00  7.00000000E+00  1.00000000E+00  7.00000000E+00  1.00000000E+00
  1.00000000E+00  1.00000000E+00  1.00000000E+00  1.00000000E+00  6.00000000E+00
  1.00000000E+00  1.00000000E+00  6.00000000E+00  1.00000000E+00  1.00000000E+00
  6.00000000E+00  1.00000000E+00  1.00000000E+00  6.00000000E+00  1.00000000E+00
  1.00000000E+00  6.00000000E+00  1.00000000E+00  1.00000000E+00  6.00000000E+00
  1.00000000E+00  1.00000000E+00
Nuclear QMom                               R   N=          37
  4.20000000E+01  2.04400000E+00  0.00000000E+00  2.04400000E+00  0.00000000E+00
  0.00000000E+00  2.04400000E+00  0.00000000E+00  2.04400000E+00  0.00000000E+00
  0.00000000E+00  2.04400000E+00  0.00000000E+00  2.04400000E+00  0.00000000E+00
  0.00000000E+00  0.00000000E+00  0.00000000E+00  0.00000000E+00  0.00000000E+00
  0.00000000E+00  0.00000000E+00  0.00000000E+00  0.00000000E+00  0.00000000E+00
  0.00000000E+00  0.00000000E+00  0.00000000E+00  0.00000000E+00  0.00000000E+00
  0.00000000E+00  0.00000000E+00  0.00000000E+00  0.00000000E+00  0.00000000E+00
  0.00000000E+00  0.00000000E+00
Nuclear GFac                               R   N=          37
  4.62700000E+00  4.03761000E-01  2.79284600E+00  4.03761000E-01  2.79284600E+00
  2.79284600E+00  4.03761000E-01  2.79284600E+00  4.03761000E-01  2.79284600E+00
  2.79284600E+00  4.03761000E-01  2.79284600E+00  4.03761000E-01  2.79284600E+00
  2.79284600E+00  2.79284600E+00  2.79284600E+00  2.79284600E+00  0.00000000E+00
  2.79284600E+00  2.79284600E+00  0.00000000E+00  2.79284600E+00  2.79284600E+00
  0.00000000E+00  2.79284600E+00  2.79284600E+00  0.00000000E+00  2.79284600E+00
  2.79284600E+00  0.00000000E+00  2.79284600E+00  2.79284600E+00  0.00000000E+00
  2.79284600E+00  2.79284600E+00
MicOpt                                     I   N=          37
          -1          -1          -1          -1          -1          -1
          -1          -1          -1          -1          -1          -1
          -1          -1          -1          -1          -1          -1
          -1          -1          -1          -1          -1          -1
          -1          -1          -1          -1          -1          -1
          -1          -1          -1          -1          -1          -1
          -1
Number of residues                         I                0
Number of secondary structures             I                0
SymInf integers                            I   N=          26
           1           1           1           1           1           0
           0           0           0           0           0           0
           0           0           0           0           0           0
           0           0           0           0           0           0
           0           0
RotTr to input orientation                 R   N=          12
  1.00000000E+00 -5.46558748E-06  0.00000000E+00  5.46558748E-06  1.00000000E+00
  0.00000000E+00  0.00000000E+00  0.00000000E+00  1.00000000E+00  4.24822152E-07
  1.31841358E-07  1.75788477E-07
Number of contracted shells                I               53
Number of primitive shells                 I              159
Pure/Cartesian d shells                    I                0
Pure/Cartesian f shells                    I                0
Highest angular momentum                   I                2
Largest degree of contraction              I                3
Shell types                                I   N=          53
           0          -1          -1          -1          -2           0
          -1           0           0          -1           0           0
           0          -1           0           0          -1           0
           0           0          -1           0           0          -1
           0           0           0           0           0           0
          -1           0           0           0          -1           0
           0           0          -1           0           0           0
          -1           0           0           0          -1           0
           0           0          -1           0           0
Number of primitives per shell             I   N=          53
           3           3           3           3           3           3
           3           3           3           3           3           3
           3           3           3           3           3           3
           3           3           3           3           3           3
           3           3           3           3           3           3
           3           3           3           3           3           3
           3           3           3           3           3           3
           3           3           3           3           3           3
           3           3           3           3           3
Shell to atom map                          I   N=          53
           1           1           1           1           1           2
           2           3           4           4           5           6
           7           7           8           9           9          10
          11          12          12          13          14          14
          15          16          17          18          19          20
          20          21          22          23          23          24
          25          26          26          27          28          29
          29          30          31          32          32          33
          34          35          35          36          37
Primitive exponents                        R   N=         159
  1.55729870E+03  2.83663903E+02  7.67705223E+01  1.21834474E+02  2.83117116E+01
  9.20784732E+00  9.48085168E+00  2.89196195E+00  1.11580883E+00  5.92115681E-01
  2.18527925E-01  9.65042359E-02  7.66452739E+00  2.33792515E+00  9.02044205E-01
  9.91061690E+01  1.80523124E+01  4.88566024E+00  3.78045588E+00  8.78496645E-01
  2.85714374E-01  3.42525091E+00  6.23913730E-01  1.68855404E-01  9.91061690E+01
  1.80523124E+01  4.88566024E+00  3.78045588E+00  8.78496645E-01  2.85714374E-01
  3.42525091E+00  6.23913730E-01  1.68855404E-01  3.42525091E+00  6.23913730E-01
  1.68855404E-01  9.91061690E+01  1.80523124E+01  4.88566024E+00  3.78045588E+00
  8.78496645E-01  2.85714374E-01  3.42525091E+00  6.23913730E-01  1.68855404E-01
  9.91061690E+01  1.80523124E+01  4.88566024E+00  3.78045588E+00  8.78496645E-01
  2.85714374E-01  3.42525091E+00  6.23913730E-01  1.68855404E-01  3.42525091E+00
  6.23913730E-01  1.68855404E-01  9.91061690E+01  1.80523124E+01  4.88566024E+00
  3.78045588E+00  8.78496645E-01  2.85714374E-01  3.42525091E+00  6.23913730E-01
  1.68855404E-01  9.91061690E+01  1.80523124E+01  4.88566024E+00  3.78045588E+00
  8.78496645E-01  2.85714374E-01  3.42525091E+00  6.23913730E-01  1.68855404E-01
  3.42525091E+00  6.23913730E-01  1.68855404E-01  3.42525091E+00  6.23913730E-01
  1.68855404E-01  3.42525091E+00  6.23913730E-01  1.68855404E-01  3.42525091E+00
  6.23913730E-01  1.68855404E-01  7.16168373E+01  1.30450963E+01  3.53051216E+00
  2.94124936E+00  6.83483096E-01  2.22289916E-01  3.42525091E+00  6.23913730E-01
  1.68855404E-01  3.42525091E+00  6.23913730E-01  1.68855404E-01  7.16168373E+01
  1.30450963E+01  3.53051216E+00  2.94124936E+00  6.83483096E-01  2.22289916E-01
  3.42525091E+00  6.23913730E-01  1.68855404E-01  3.42525091E+00  6.23913730E-01
  1.68855404E-01  7.16168373E+01  1.30450963E+01  3.53051216E+00  2.94124936E+00
  6.83483096E-01  2.22289916E-01  3.42525091E+00  6.23913730E-01  1.68855404E-01
  3.42525091E+00  6.23913730E-01  1.68855404E-01  7.16168373E+01  1.30450963E+01
  3.53051216E+00  2.94124936E+00  6.83483096E-01  2.22289916E-01  3.42525091E+00
  6.23913730E-01  1.68855404E-01  3.42525091E+00  6.23913730E-01  1.68855404E-01
  7.16168373E+01  1.30450963E+01  3.53051216E+00  2.94124936E+00  6.83483096E-01
  2.22289916E-01  3.42525091E+00  6.23913730E-01  1.68855404E-01  3.42525091E+00
  6.23913730E-01  1.68855404E-01  7.16168373E+01  1.30450963E+01  3.53051216E+00
  2.94124936E+00  6.83483096E-01  2.22289916E-01  3.42525091E+00  6.23913730E-01
  1.68855404E-01  3.42525091E+00  6.23913730E-01  1.68855404E-01
Contraction coefficients                   R   N=         159
  1.54328967E-01  5.35328142E-01  4.44634542E-01 -9.99672292E-02  3.99512826E-01
  7.00115469E-01 -2.27763502E-01  2.17543604E-01  9.16676961E-01 -3.08844121E-01
  1.96064117E-02  1.13103444E+00  2.19767951E-01  6.55547363E-01  2.86573259E-01
  1.54328967E-01  5.35328142E-01  4.44634542E-01 -9.99672292E-02  3.99512826E-01
  7.00115469E-01  1.54328967E-01  5.35328142E-01  4.44634542E-01  1.54328967E-01
  5.35328142E-01  4.44634542E-01 -9.99672292E-02  3.99512826E-01  7.00115469E-01
  1.54328967E-01  5.35328142E-01  4.44634542E-01  1.54328967E-01  5.35328142E-01
  4.44634542E-01  1.54328967E-01  5.35328142E-01  4.44634542E-01 -9.99672292E-02
  3.99512826E-01  7.00115469E-01  1.54328967E-01  5.35328142E-01  4.44634542E-01
  1.54328967E-01  5.35328142E-01  4.44634542E-01 -9.99672292E-02  3.99512826E-01
  7.00115469E-01  1.54328967E-01  5.35328142E-01  4.44634542E-01  1.54328967E-01
  5.35328142E-01  4.44634542E-01  1.54328967E-01  5.35328142E-01  4.44634542E-01
 -9.99672292E-02  3.99512826E-01  7.00115469E-01  1.54328967E-01  5.35328142E-01
  4.44634542E-01  1.54328967E-01  5.35328142E-01  4.44634542E-01 -9.99672292E-02
  3.99512826E-01  7.00115469E-01  1.54328967E-01  5.35328142E-01  4.44634542E-01
  1.54328967E-01  5.35328142E-01  4.44634542E-01  1.54328967E-01  5.35328142E-01
  4.44634542E-01  1.54328967E-01  5.35328142E-01  4.44634542E-01  1.54328967E-01
  5.35328142E-01  4.44634542E-01  1.54328967E-01  5.35328142E-01  4.44634542E-01
 -9.99672292E-02  3.99512826E-01  7.00115469E-01  1.54328967E-01  5.35328142E-01
  4.44634542E-01  1.54328967E-01  5.35328142E-01  4.44634542E-01  1.54328967E-01
  5.35328142E-01  4.44634542E-01 -9.99672292E-02  3.99512826E-01  7.00115469E-01
  1.54328967E-01  5.35328142E-01  4.44634542E-01  1.54328967E-01  5.35328142E-01
  4.44634542E-01  1.54328967E-01  5.35328142E-01  4.44634542E-01 -9.99672292E-02
  3.99512826E-01  7.00115469E-01  1.54328967E-01  5.35328142E-01  4.44634542E-01
  1.54328967E-01  5.35328142E-01  4.44634542E-01  1.54328967E-01  5.35328142E-01
  4.44634542E-01 -9.99672292E-02  3.99512826E-01  7.00115469E-01  1.54328967E-01
  5.35328142E-01  4.44634542E-01  1.54328967E-01  5.35328142E-01  4.44634542E-01
  1.54328967E-01  5.35328142E-01  4.44634542E-01 -9.99672292E-02  3.99512826E-01
  7.00115469E-01  1.54328967E-01  5.35328142E-01  4.44634542E-01  1.54328967E-01
  5.35328142E-01  4.44634542E-01  1.54328967E-01  5.35328142E-01  4.44634542E-01
 -9.99672292E-02  3.99512826E-01  7.00115469E-01  1.54328967E-01  5.35328142E-01
  4.44634542E-01  1.54328967E-01  5.35328142E-01  4.44634542E-01
P(S=P) Contraction coefficients            R   N=         159
  0.00000000E+00  0.00000000E+00  0.00000000E+00  1.55916275E-01  6.07683719E-01
  3.91957393E-01  4.95151116E-03  5.77766469E-01  4.84646037E-01 -1.21546860E-01
  5.71522760E-01  5.49894947E-01  0.00000000E+00  0.00000000E+00  0.00000000E+00
  0.00000000E+00  0.00000000E+00  0.00000000E+00  1.55916275E-01  6.07683719E-01
  3.91957393E-01  0.00000000E+00  0.00000000E+00  0.00000000E+00  0.00000000E+00
  0.00000000E+00  0.00000000E+00  1.55916275E-01  6.07683719E-01  3.91957393E-01
  0.00000000E+00  0.00000000E+00  0.00000000E+00  0.00000000E+00  0.00000000E+00
  0.00000000E+00  0.00000000E+00  0.00000000E+00  0.00000000E+00  1.55916275E-01
  6.07683719E-01  3.91957393E-01  0.00000000E+00  0.00000000E+00  0.00000000E+00
  0.00000000E+00  0.00000000E+00  0.00000000E+00  1.55916275E-01  6.07683719E-01
  3.91957393E-01  0.00000000E+00  0.00000000E+00  0.00000000E+00  0.00000000E+00
  0.00000000E+00  0.00000000E+00  0.00000000E+00  0.00000000E+00  0.00000000E+00
  1.55916275E-01  6.07683719E-01  3.91957393E-01  0.00000000E+00  0.00000000E+00
  0.00000000E+00  0.00000000E+00  0.00000000E+00  0.00000000E+00  1.55916275E-01
  6.07683719E-01  3.91957393E-01  0.00000000E+00  0.00000000E+00  0.00000000E+00
  0.00000000E+00  0.00000000E+00  0.00000000E+00  0.00000000E+00  0.00000000E+00
  0.00000000E+00  0.00000000E+00  0.00000000E+00  0.00000000E+00  0.00000000E+00
  0.00000000E+00  0.00000000E+00  0.00000000E+00  0.00000000E+00  0.00000000E+00
  1.55916275E-01  6.07683719E-01  3.91957393E-01  0.00000000E+00  0.00000000E+00
  0.00000000E+00  0.00000000E+00  0.00000000E+00  0.00000000E+00  0.00000000E+00
  0.00000000E+00  0.00000000E+00  1.55916275E-01  6.07683719E-01  3.91957393E-01
  0.00000000E+00  0.00000000E+00  0.00000000E+00  0.00000000E+00  0.00000000E+00
  0.00000000E+00  0.00000000E+00  0.00000000E+00  0.00000000E+00  1.55916275E-01
  6.07683719E-01  3.91957393E-01  0.00000000E+00  0.00000000E+00  0.00000000E+00
  0.00000000E+00  0.00000000E+00  0.00000000E+00  0.00000000E+00  0.00000000E+00
  0.00000000E+00  1.55916275E-01  6.07683719E-01  3.91957393E-01  0.00000000E+00
  0.00000000E+00  0.00000000E+00  0.00000000E+00  0.00000000E+00  0.00000000E+00
  0.00000000E+00  0.00000000E+00  0.00000000E+00  1.55916275E-01  6.07683719E-01
  3.91957393E-01  0.00000000E+00  0.00000000E+00  0.00000000E+00  0.00000000E+00
  0.00000000E+00  0.00000000E+00  0.00000000E+00  0.00000000E+00  0.00000000E+00
  1.55916275E-01  6.07683719E-01  3.91957393E-01  0.00000000E+00  0.00000000E+00
  0.00000000E+00  0.00000000E+00  0.00000000E+00  0.00000000E+00
Coordinates of each shell                  R   N=         159
  5.43447325E-05  5.94683657E-03  4.04225602E-04  5.43447325E-05  5.94683657E-03
  4.04225602E-04  5.43447325E-05  5.94683657E-03  4.04225602E-04  5.43447325E-05
  5.94683657E-03  4.04225602E-04  5.43447325E-05  5.94683657E-03  4.04225602E-04
 -1.76894559E+00 -2.60375382E+00 -2.10730748E+00 -1.76894559E+00 -2.60375382E+00
 -2.10730748E+00 -9.63323095E-01 -4.35515893E+00 -1.94697933E+00 -3.10123645E+00
 -1.97172208E-01  2.16873645E+00 -3.10123645E+00 -1.97172208E-01  2.16873645E+00
 -2.76536581E+00 -2.28073064E-01  4.07453470E+00 -4.24883775E+00  1.34324500E+00
  1.93562173E+00  1.77605965E+00 -2.59880226E+00  2.10840317E+00  1.77605965E+00
 -2.59880226E+00  2.10840317E+00  1.71400479E+00 -2.24752141E+00  4.01037094E+00
  3.10173660E+00 -1.89020042E-01 -2.16793934E+00  3.10173660E+00 -1.89020042E-01
 -2.16793934E+00  2.76632171E+00 -2.18057517E-01 -4.07385097E+00  4.24691543E+00
  1.35287423E+00 -1.93267411E+00  1.47511758E+00  2.82397119E+00  2.06558953E+00
  1.47511758E+00  2.82397119E+00  2.06558953E+00  5.36612343E-01  3.02603825E+00
  3.74600959E+00 -1.48249842E+00  2.81991668E+00 -2.06503052E+00 -1.48249842E+00
  2.81991668E+00 -2.06503052E+00 -5.46176142E-01  3.02270075E+00 -3.74656741E+00
 -3.32423547E+00  2.56897933E+00 -2.60103622E+00 -1.70515979E+00 -2.25501586E+00
 -4.00969099E+00  9.73075467E-01 -4.35174495E+00  1.95161448E+00  3.31682711E+00
  2.57717168E+00  2.60366637E+00 -4.51281535E+00 -2.82902039E+00 -1.33548286E+00
 -4.51281535E+00 -2.82902039E+00 -1.33548286E+00 -5.58378416E+00 -1.34650398E+00
 -2.30011434E+00 -5.29617440E+00 -4.64159328E+00 -1.94740830E+00 -4.62107186E+00
 -2.52627552E+00  1.50977572E+00 -4.62107186E+00 -2.52627552E+00  1.50977572E+00
 -3.78067346E+00 -4.14480624E+00  2.48363285E+00 -6.56503979E+00 -2.34367246E+00
  2.18932691E+00  1.26305408E+00  5.30420911E+00  6.63223774E-01  1.26305408E+00
  5.30420911E+00  6.63223774E-01  1.45071029E+00  6.89829806E+00  1.96615781E+00
  2.82337380E+00  5.42898870E+00 -6.88202526E-01 -1.27440590E+00  5.30154207E+00
 -6.64448668E-01 -1.27440590E+00  5.30154207E+00 -6.64448668E-01 -1.46488388E+00
  6.89437228E+00 -1.96850142E+00 -2.83486492E+00  5.42459061E+00  6.86998418E-01
  4.51960682E+00 -2.82026506E+00  1.33390836E+00  4.51960682E+00 -2.82026506E+00
  1.33390836E+00  5.58937834E+00 -1.33652941E+00  2.29802018E+00  5.30590153E+00
 -4.63195443E+00  1.94462816E+00  4.62521250E+00 -2.51633416E+00 -1.51132943E+00
  4.62521250E+00 -2.51633416E+00 -1.51132943E+00  3.78637571E+00 -4.13558081E+00
 -2.48530372E+00  6.56843954E+00 -2.33072409E+00 -2.19221098E+00
Num ILSW                                   I              100
ILSW                                       I   N=         100
           0           0           0           0           2           0
           0           0           0           0         402          -1
           5           0           0           0           0           0
           0           0           0           0           0           0
           1           0           0           0           0           0
           0           0      100000           0          -1           0
           0           0           0           0           0           0
           0           0           0           1           0           0
           0 -2000000000           1           0           0           0
           0           0           4          52           0           0
           0           0           5           0           0           0
           0           0           0          37           0           1
           0           0           0           0           0           0
           0           0           0           0           0           0
           0           0           0           0           0           0
           0           0           0           0           0           0
           0           0           0           0
Num RLSW                                   I               52
RLSW                                       R   N=          52
  8.00000000E-01  7.20000000E-01  1.00000000E+00  8.10000000E-01  2.00000000E-01
  0.00000000E+00  0.00000000E+00  1.00000000E+00  0.00000000E+00  0.00000000E+00
  0.00000000E+00  0.00000000E+00  1.00000000E+00  0.00000000E+00  0.00000000E+00
  0.00000000E+00  0.00000000E+00  1.00000000E+00  0.00000000E+00  0.00000000E+00
  0.00000000E+00  0.00000000E+00  1.00000000E+00  0.00000000E+00  0.00000000E+00
  0.00000000E+00  0.00000000E+00  1.00000000E+00  0.00000000E+00  0.00000000E+00
  0.00000000E+00  0.00000000E+00  1.00000000E+00  0.00000000E+00  0.00000000E+00
  0.00000000E+00  0.00000000E+00  0.00000000E+00  1.00000000E+00  1.00000000E+00
  0.00000000E+00  1.00000000E+00  0.00000000E+00  0.00000000E+00  0.00000000E+00
  0.00000000E+00  0.00000000E+00  0.00000000E+00  0.00000000E+00  0.00000000E+00
  0.00000000E+00  0.00000000E+00
MxBond                                     I                6
NBond                                      I   N=          37
           6           4           1           4           1           1
           4           1           4           1           1           4
           1           4           1           1           1           1
           1           4           1           1           4           1
           1           4           1           1           4           1
           1           4           1           1           4           1
           1
IBond                                      I   N=         222
           2           4           7           9          12          14
           1           3          17          20           0           0
           2           0           0           0           0           0
           1           5           6          23           0           0
           4           0           0           0           0           0
           4           0           0           0           0           0
           1           8          18          32           0           0
           7           0           0           0           0           0
           1          10          11          35           0           0
           9           0           0           0           0           0
           9           0           0           0           0           0
           1          13          19          26           0           0
          12           0           0           0           0           0
           1          15          16          29           0           0
          14           0           0           0           0           0
          14           0           0           0           0           0
           2           0           0           0           0           0
           7           0           0           0           0           0
          12           0           0           0           0           0