coh6 b3lyp/sto-3G                                                       
SP        RB3LYP                                                      STO-3G              
Number of atoms                            I                7
Info1-9                                    I   N=           9
          16          16           0           0           0         110
           1          18        -502
Full Title                                 C   N=           2
coh6 b3lyp/sto-3G       
Route                                      C   N=           2
#p b3lyp/sto-3g         
Charge                                     I               -3
Multiplicity                               I                1
Number of electrons                        I               36
Number of alpha electrons                  I               18
Number of beta electrons                   I               18
Number of basis functions                  I               24
Number of independent functions            I               24
Number of point charges in /Mol/           I                0
Number of translation vectors              I                0
Atomic numbers                             I   N=           7
          27           1           1           1           1           1
           1
Nuclear charges                            R   N=           7
  2.70000000E+01  1.00000000E+00  1.00000000E+00  1.00000000E+00  1.00000000E+00
  1.00000000E+00  1.00000000E+00
Current cartesian coordinates              R   N=          21
  0.00000000E+00  0.00000000E+00  0.00000000E+00 -1.96816876E-16 -5.90450628E-16
  3.21426351E+00  1.96816876E-16  1.96816876E-16 -3.21426351E+00  3.93633752E-16
  3.21426351E+00  0.00000000E+00 -3.93633752E-16 -3.21426351E+00 -3.93633752E-16
 -3.21426351E+00  3.93633752E-16 -7.87267504E-16  3.21426351E+00 -3.93633752E-16
  3.93633752E-16
Number of symbols in /Mol/                 I                0
Force Field                                I                0
Atom Types                                 C   N=           7
                                                            
                        
Int Atom Types                             I   N=           7
           0           0           0           0           0           0
           0
MM charges                                 R   N=           7
  0.00000000E+00  0.00000000E+00  0.00000000E+00  0.00000000E+00  0.00000000E+00
  0.00000000E+00  0.00000000E+00
Integer atomic weights                     I   N=           7
          59           1           1           1           1           1
           1
Real atomic weights                        R   N=           7
  5.89331978E+01  1.00782504E+00  1.00782504E+00  1.00782504E+00  1.00782504E+00
  1.00782504E+00  1.00782504E+00
Atom fragment info                         I   N=           7
           0           0           0           0           0           0
           0
Atom residue num                           I   N=           7
           0           0           0           0           0           0
           0
Nuclear spins                              I   N=           7
           7           1           1           1           1           1
           1
Nuclear ZEff                               R   N=           7
 -2.53800000E+01 -1.00000000E+00 -1.00000000E+00 -1.00000000E+00 -1.00000000E+00
 -1.00000000E+00 -1.00000000E+00
Nuclear ZNuc                               R   N=           7
  2.70000000E+01  1.00000000E+00  1.00000000E+00  1.00000000E+00  1.00000000E+00
  1.00000000E+00  1.00000000E+00
Nuclear QMom                               R   N=           7
  4.20000000E+01  0.00000000E+00  0.00000000E+00  0.00000000E+00  0.00000000E+00
  0.00000000E+00  0.00000000E+00
Nuclear GFac                               R   N=           7
  4.62700000E+00  2.79284600E+00  2.79284600E+00  2.79284600E+00  2.79284600E+00
  2.79284600E+00  2.79284600E+00
MicOpt                                     I   N=           7
          -1          -1          -1          -1          -1          -1
          -1
Number of residues                         I                0
Number of secondary structures             I                0
SymInf integers                            I   N=          26
           8           8           1           1           1           1
          -1          -1          -1           1          -1          -1
          -1           1          -1          -1          -1          -1
           1           1           1          -1           1           1
           1          -1
RotTr to input orientation                 R   N=          12
  1.00000000E+00 -1.22464680E-16  6.12323400E-17  1.22464680E-16  1.00000000E+00
  1.83697020E-16 -6.12323400E-17 -1.83697020E-16  1.00000000E+00  0.00000000E+00
  0.00000000E+00  0.00000000E+00
Number of contracted shells                I               11
Number of primitive shells                 I               33
Pure/Cartesian d shells                    I                0
Pure/Cartesian f shells                    I                0
Highest angular momentum                   I                2
Largest degree of contraction              I                3
Shell types                                I   N=          11
           0          -1          -1          -1          -2           0
           0           0           0           0           0
Number of primitives per shell             I   N=          11
           3           3           3           3           3           3
           3           3           3           3           3
Shell to atom map                          I   N=          11
           1           1           1           1           1           2
           3           4           5           6           7
Primitive exponents                        R   N=          33
  1.55729870E+03  2.83663903E+02  7.67705223E+01  1.21834474E+02  2.83117116E+01
  9.20784732E+00  9.48085168E+00  2.89196195E+00  1.11580883E+00  5.92115681E-01
  2.18527925E-01  9.65042359E-02  7.66452739E+00  2.33792515E+00  9.02044205E-01
  3.42525091E+00  6.23913730E-01  1.68855404E-01  3.42525091E+00  6.23913730E-01
  1.68855404E-01  3.42525091E+00  6.23913730E-01  1.68855404E-01  3.42525091E+00
  6.23913730E-01  1.68855404E-01  3.42525091E+00  6.23913730E-01  1.68855404E-01
  3.42525091E+00  6.23913730E-01  1.68855404E-01
Contraction coefficients                   R   N=          33
  1.54328967E-01  5.35328142E-01  4.44634542E-01 -9.99672292E-02  3.99512826E-01
  7.00115469E-01 -2.27763502E-01  2.17543604E-01  9.16676961E-01 -3.08844121E-01
  1.96064117E-02  1.13103444E+00  2.19767951E-01  6.55547363E-01  2.86573259E-01
  1.54328967E-01  5.35328142E-01  4.44634542E-01  1.54328967E-01  5.35328142E-01
  4.44634542E-01  1.54328967E-01  5.35328142E-01  4.44634542E-01  1.54328967E-01
  5.35328142E-01  4.44634542E-01  1.54328967E-01  5.35328142E-01  4.44634542E-01
  1.54328967E-01  5.35328142E-01  4.44634542E-01
P(S=P) Contraction coefficients            R   N=          33
  0.00000000E+00  0.00000000E+00  0.00000000E+00  1.55916275E-01  6.07683719E-01
  3.91957393E-01  4.95151116E-03  5.77766469E-01  4.84646037E-01 -1.21546860E-01
  5.71522760E-01  5.49894947E-01  0.00000000E+00  0.00000000E+00  0.00000000E+00
  0.00000000E+00  0.00000000E+00  0.00000000E+00  0.00000000E+00  0.00000000E+00
  0.00000000E+00  0.00000000E+00  0.00000000E+00  0.00000000E+00  0.00000000E+00
  0.00000000E+00  0.00000000E+00  0.00000000E+00  0.00000000E+00  0.00000000E+00
  0.00000000E+00  0.00000000E+00  0.00000000E+00
Coordinates of each shell                  R   N=          33
  0.00000000E+00  0.00000000E+00  0.00000000E+00  0.00000000E+00  0.00000000E+00
  0.00000000E+00  0.00000000E+00  0.00000000E+00  0.00000000E+00  0.00000000E+00
  0.00000000E+00  0.00000000E+00  0.00000000E+00  0.00000000E+00  0.00000000E+00
  0.00000000E+00 -3.96188566E-32  3.21426351E+00 -4.45640758E-64 -3.93633752E-16
 -3.21426351E+00 -4.45640758E-64  3.21426351E+00 -5.90450628E-16 -3.96188566E-32
 -3.21426351E+00  1.96816876E-16 -3.21426351E+00 -3.96188566E-32 -5.90450628E-16
  3.21426351E+00 -3.96188566E-32  1.96816876E-16
Num ILSW                                   I              100
ILSW                                       I   N=         100
           0           0           0           0           2           0
           0           0           0           0         402          -1
           5           0           0           0           0           0
           0           0           0           0           0           0
           1           0           0           0           0           0
           0           0      100000           0          -1           0
           0           0           0           0           0           0
           0           0           0           1           0           0
           0 -2000000000           1           0           0           0
           0           0           4          52           0           0
           0           0           5           0           0           0
           0           0           0           7           0           1
           0           0           0           0           0           0
           0           0           0           0           0           0
           0           0           0           0           0           0
           0           0           0           0           0           0
           0           0           0           0
Num RLSW                                   I               52
RLSW                                       R   N=          52
  8.00000000E-01  7.20000000E-01  1.00000000E+00  8.10000000E-01  2.00000000E-01
  0.00000000E+00  0.00000000E+00  1.00000000E+00  0.00000000E+00  0.00000000E+00
  0.00000000E+00  0.00000000E+00  1.00000000E+00  0.00000000E+00  0.00000000E+00
  0.00000000E+00  0.00000000E+00  1.00000000E+00  0.00000000E+00  0.00000000E+00
  0.00000000E+00  0.00000000E+00  1.00000000E+00  0.00000000E+00  0.00000000E+00
  0.00000000E+00  0.00000000E+00  1.00000000E+00  0.00000000E+00  0.00000000E+00
  0.00000000E+00  0.00000000E+00  1.00000000E+00  0.00000000E+00  0.00000000E+00
  0.00000000E+00  0.00000000E+00  0.00000000E+00  1.00000000E+00  1.00000000E+00
  0.00000000E+00  1.00000000E+00  0.00000000E+00  0.00000000E+00  0.00000000E+00
  0.00000000E+00  0.00000000E+00  0.00000000E+00  0.00000000E+00  0.00000000E+00
  0.00000000E+00  0.00000000E+00
MxBond                                     I                6
NBond                                      I   N=           7
           6           1           1           1           1           1
           1
IBond                                      I   N=          42
           2           3           4           5           6           7
           1           0           0           0           0           0
           1           0           0           0           0           0
           1           0           0           0           0           0
           1           0           0           0           0           0
           1           0           0           0           0           0
           1           0           0           0           0           0
RBond                                      R   N=          42
  1.00000000E+00  1.00000000E+00  1.00000000E+00  1.00000000E+00  1.00000000E+00
  1.00000000E+00  1.00000000E+00  0.00000000E+00  0.00000000E+00  0.00000000E+00
  0.00000000E+00  0.00000000E+00  1.00000000E+00  0.00000000E+00  0.00000000E+00
  0.00000000E+00  0.00000000E+00  0.00000000E+00  1.00000000E+00  0.00000000E+00
  0.00000000E+00  0.00000000E+00  0.00000000E+00  0.00000000E+00  1.00000000E+00
  0.00000000E+00  0.00000000E+00  0.00000000E+00  0.00000000E+00  0.00000000E+00
  1.00000000E+00  0.00000000E+00  0.00000000E+00  0.00000000E+00  0.00000000E+00
  0.00000000E+00  1.00000000E+00  0.00000000E+00  0.00000000E+00  0.00000000E+00
  0.00000000E+00  0.00000000E+00
Virial Ratio                               R      2.002156476011842E+00
SCF Energy                                 R     -1.369843657415117E+03
Total Energy                               R     -1.369843657415117E+03
RMS Density                                R      5.615741145205702E-09
Job Status                                 I                1
Nuclear derivative order                   I                0
External E-field                           R   N=          35
  0.00000000E+00  0.00000000E+00  0.00000000E+00  0.00000000E+00  0.00000000E+00
  0.00000000E+00  0.00000000E+00  0.00000000E+00  0.00000000E+00  0.00000000E+00
  0.00000000E+00  0.00000000E+00  0.00000000E+00  0.00000000E+00  0.00000000E+00
  0.00000000E+00  0.00000000E+00  0.00000000E+00  0.00000000E+00  0.00000000E+00
  0.00000000E+00  0.00000000E+00  0.00000000E+00  0.00000000E+00  0.00000000E+00
  0.00000000E+00  0.00000000E+00  0.00000000E+00  0.00000000E+00  0.00000000E+00
  0.00000000E+00  0.00000000E+00  0.00000000E+00  0.00000000E+00  0.00000000E+00
IOpCl                                      I                0
IROHF                                      I                0
Alpha Orbital Energies                     R   N=          24
 -2.73826580E+02 -3.12893142E+01 -2.75589630E+01 -2.75589630E+01 -2.75589630E+01
 -2.73254439E+00 -1.43483608E+00 -1.43483608E+00 -1.43483608E+00  3.95981476E-01
  5.27682467E-01  5.27682467E-01  5.27682467E-01  6.29173015E-01  6.29173015E-01
  9.61039601E-01  9.61039601E-01  9.61039601E-01  1.18422952E+00  1.18422952E+00
  1.26430199E+00  1.26430199E+00  1.26430199E+00  1.35557181E+00
Alpha MO coefficients                      R   N=         576
  9.93289201E-01  1.70916940E-02  0.00000000E+00  0.00000000E+00  0.00000000E+00
 -2.37481759E-03  0.00000000E+00  0.00000000E+00  0.00000000E+00  6.20118769E-04
  0.00000000E+00  0.00000000E+00  0.00000000E+00 -2.96944279E-16  0.00000000E+00
  0.00000000E+00 -4.31924511E-16  0.00000000E+00 -1.19903350E-04 -1.19903350E-04
 -1.19903350E-04 -1.19903350E-04 -1.19903350E-04 -1.19903350E-04 -4.28311792E-01
  1.05634475E+00  0.00000000E+00  0.00000000E+00  0.00000000E+00  7.25297884E-02
  0.00000000E+00  0.00000000E+00  0.00000000E+00 -1.61942237E-02  0.00000000E+00
  0.00000000E+00  0.00000000E+00  8.45760506E-16  0.00000000E+00  0.00000000E+00
  6.60204601E-17  0.00000000E+00  3.17987970E-03  3.17987970E-03  3.17987970E-03
  3.17987970E-03  3.17987970E-03  3.17987970E-03  0.00000000E+00  0.00000000E+00
  0.00000000E+00  0.00000000E+00  9.90927265E-01  0.00000000E+00  0.00000000E+00
  0.00000000E+00  2.62176374E-02  0.00000000E+00  0.00000000E+00  0.00000000E+00
 -4.01237279E-03  0.00000000E+00  0.00000000E+00  0.00000000E+00  0.00000000E+00
  0.00000000E+00  1.38679566E-03 -1.38679566E-03  0.00000000E+00  0.00000000E+00
  0.00000000E+00  0.00000000E+00  0.00000000E+00  0.00000000E+00  0.00000000E+00
  9.90927265E-01  0.00000000E+00  0.00000000E+00  0.00000000E+00  2.62176374E-02
  0.00000000E+00  0.00000000E+00  0.00000000E+00 -4.01237279E-03  0.00000000E+00
  0.00000000E+00  0.00000000E+00  0.00000000E+00  0.00000000E+00  0.00000000E+00
  0.00000000E+00  0.00000000E+00  1.38679566E-03 -1.38679566E-03  0.00000000E+00
  0.00000000E+00  0.00000000E+00  0.00000000E+00  9.90927265E-01  0.00000000E+00
  0.00000000E+00  0.00000000E+00  2.62176374E-02  0.00000000E+00  0.00000000E+00
  0.00000000E+00 -4.01237279E-03  0.00000000E+00  0.00000000E+00  0.00000000E+00
  0.00000000E+00  0.00000000E+00  0.00000000E+00  0.00000000E+00  0.00000000E+00
  0.00000000E+00  0.00000000E+00  0.00000000E+00 -1.38679566E-03  1.38679566E-03
  1.55352615E-01 -4.61196500E-01  0.00000000E+00  0.00000000E+00  0.00000000E+00
  1.05531612E+00  0.00000000E+00  0.00000000E+00  0.00000000E+00  3.99978652E-02
  0.00000000E+00  0.00000000E+00  0.00000000E+00 -2.49517650E-15  0.00000000E+00
  0.00000000E+00  2.43739447E-15  0.00000000E+00 -5.08216882E-03 -5.08216882E-03
 -5.08216882E-03 -5.08216882E-03 -5.08216882E-03 -5.08216882E-03  0.00000000E+00
  0.00000000E+00 -3.74603047E-01  0.00000000E+00  0.00000000E+00  0.00000000E+00
  1.04074232E+00  0.00000000E+00  0.00000000E+00  0.00000000E+00  9.44664460E-02
  0.00000000E+00  0.00000000E+00  0.00000000E+00  0.00000000E+00  0.00000000E+00
  0.00000000E+00  0.00000000E+00  0.00000000E+00  0.00000000E+00  0.00000000E+00
  0.00000000E+00  1.86240577E-02 -1.86240577E-02  0.00000000E+00  0.00000000E+00
  0.00000000E+00  0.00000000E+00 -3.74603047E-01  0.00000000E+00  0.00000000E+00
  0.00000000E+00  1.04074232E+00  0.00000000E+00  0.00000000E+00  0.00000000E+00
  9.44664460E-02  0.00000000E+00  0.00000000E+00  0.00000000E+00  0.00000000E+00
  0.00000000E+00 -1.86240577E-02  1.86240577E-02  0.00000000E+00  0.00000000E+00
  0.00000000E+00  0.00000000E+00  0.00000000E+00  0.00000000E+00  0.00000000E+00
 -3.74603047E-01  0.00000000E+00  0.00000000E+00  0.00000000E+00  1.04074232E+00
  0.00000000E+00  0.00000000E+00  0.00000000E+00  9.44664460E-02  0.00000000E+00
  0.00000000E+00  0.00000000E+00  0.00000000E+00  0.00000000E+00  0.00000000E+00
  0.00000000E+00  0.00000000E+00 -1.86240577E-02  1.86240577E-02  0.00000000E+00
  0.00000000E+00 -2.40448942E-02  7.03427688E-02  0.00000000E+00  0.00000000E+00
  0.00000000E+00 -2.03515468E-01  0.00000000E+00  0.00000000E+00  0.00000000E+00
  5.55142956E-01  0.00000000E+00  0.00000000E+00  0.00000000E+00 -2.90630293E-15
  0.00000000E+00  0.00000000E+00  1.49121004E-14  0.00000000E+00  1.84535335E-01
  1.84535335E-01  1.84535335E-01  1.84535335E-01  1.84535335E-01  1.84535335E-01
  0.00000000E+00  0.00000000E+00  6.37804857E-02  0.00000000E+00  0.00000000E+00
  0.00000000E+00 -2.01252695E-01  0.00000000E+00  0.00000000E+00  0.00000000E+00
  4.62201157E-01  0.00000000E+00  0.00000000E+00  0.00000000E+00  0.00000000E+00
  0.00000000E+00  0.00000000E+00  0.00000000E+00  0.00000000E+00  0.00000000E+00
  0.00000000E+00  0.00000000E+00 -4.41392490E-01  4.41392490E-01  0.00000000E+00
  0.00000000E+00  0.00000000E+00  0.00000000E+00  6.37804857E-02  0.00000000E+00
  0.00000000E+00  0.00000000E+00 -2.01252695E-01  0.00000000E+00  0.00000000E+00
  0.00000000E+00  4.62201157E-01  0.00000000E+00  0.00000000E+00  0.00000000E+00
  0.00000000E+00  0.00000000E+00  4.41392490E-01 -4.41392490E-01  0.00000000E+00
  0.00000000E+00  0.00000000E+00  0.00000000E+00  0.00000000E+00  0.00000000E+00
  0.00000000E+00  6.37804857E-02  0.00000000E+00  0.00000000E+00  0.00000000E+00
 -2.01252695E-01  0.00000000E+00  0.00000000E+00  0.00000000E+00  4.62201157E-01
  0.00000000E+00  0.00000000E+00  0.00000000E+00  0.00000000E+00  0.00000000E+00
  0.00000000E+00  0.00000000E+00  0.00000000E+00  4.41392490E-01 -4.41392490E-01
  0.00000000E+00  0.00000000E+00  5.86204430E-16 -1.13722712E-15  0.00000000E+00
  0.00000000E+00  0.00000000E+00  3.03241010E-15  0.00000000E+00  0.00000000E+00
  0.00000000E+00 -1.12930075E-14  0.00000000E+00  0.00000000E+00  0.00000000E+00
 -3.00193263E-02  0.00000000E+00  0.00000000E+00  2.05570847E-01  0.00000000E+00
 -8.54705693E-02 -8.54705693E-02 -4.64147818E-01 -4.64147818E-01  5.49618387E-01
  5.49618387E-01  5.55020241E-17 -1.95546729E-16  0.00000000E+00  0.00000000E+00
  0.00000000E+00  1.08577332E-15  0.00000000E+00  0.00000000E+00  0.00000000E+00
 -2.10481852E-15  0.00000000E+00  0.00000000E+00  0.00000000E+00  2.05570847E-01
  0.00000000E+00  0.00000000E+00  3.00193263E-02  0.00000000E+00  5.85298191E-01
  5.85298191E-01 -3.66668780E-01 -3.66668780E-01 -2.18629411E-01 -2.18629411E-01
  0.00000000E+00  0.00000000E+00  0.00000000E+00  0.00000000E+00  0.00000000E+00
  0.00000000E+00  0.00000000E+00  0.00000000E+00  0.00000000E+00  0.00000000E+00
  0.00000000E+00  0.00000000E+00  0.00000000E+00  0.00000000E+00  0.00000000E+00
  0.00000000E+00  0.00000000E+00  1.00000000E+00  0.00000000E+00  0.00000000E+00
  0.00000000E+00  0.00000000E+00  0.00000000E+00  0.00000000E+00  0.00000000E+00
  0.00000000E+00  0.00000000E+00  0.00000000E+00  0.00000000E+00  0.00000000E+00
  0.00000000E+00  0.00000000E+00  0.00000000E+00  0.00000000E+00  0.00000000E+00
  0.00000000E+00  0.00000000E+00  0.00000000E+00  0.00000000E+00  1.00000000E+00
  0.00000000E+00  0.00000000E+00  0.00000000E+00  0.00000000E+00  0.00000000E+00
  0.00000000E+00  0.00000000E+00  0.00000000E+00  0.00000000E+00  0.00000000E+00
  0.00000000E+00  0.00000000E+00  0.00000000E+00  0.00000000E+00  0.00000000E+00
  0.00000000E+00  0.00000000E+00  0.00000000E+00  0.00000000E+00  0.00000000E+00
  0.00000000E+00  0.00000000E+00  1.00000000E+00  0.00000000E+00  0.00000000E+00
  0.00000000E+00  0.00000000E+00  0.00000000E+00  0.00000000E+00  0.00000000E+00
  0.00000000E+00  0.00000000E+00 -6.99226547E-17 -2.31960723E-18  0.00000000E+00
  0.00000000E+00  0.00000000E+00  9.35139743E-16  0.00000000E+00  0.00000000E+00
  0.00000000E+00 -1.16498504E-14  0.00000000E+00  0.00000000E+00  0.00000000E+00
 -5.97831933E-02  0.00000000E+00  0.00000000E+00  9.78059915E-01  0.00000000E+00
  9.85621834E-03  9.85621834E-03  1.34717504E-01  1.34717504E-01 -1.44573723E-01
 -1.44573723E-01  3.70103421E-16 -8.02969413E-16  0.00000000E+00  0.00000000E+00
  0.00000000E+00  1.56098144E-15  0.00000000E+00  0.00000000E+00  0.00000000E+00
  2.73865917E-15  0.00000000E+00  0.00000000E+00  0.00000000E+00  9.78059915E-01
  0.00000000E+00  0.00000000E+00  5.97831933E-02  0.00000000E+00 -1.61248865E-01
 -1.61248865E-01  8.91601680E-02  8.91601680E-02  7.20886970E-02  7.20886970E-02
  0.00000000E+00  0.00000000E+00  0.00000000E+00  0.00000000E+00  7.67616195E-02
  0.00000000E+00  0.00000000E+00  0.00000000E+00 -2.48579481E-01  0.00000000E+00
  0.00000000E+00  0.00000000E+00  1.39514712E+00  0.00000000E+00  0.00000000E+00
  0.00000000E+00  0.00000000E+00  0.00000000E+00 -9.27645894E-01  9.27645894E-01
  0.00000000E+00  0.00000000E+00  0.00000000E+00  0.00000000E+00  0.00000000E+00
  0.00000000E+00  0.00000000E+00  7.67616195E-02  0.00000000E+00  0.00000000E+00
  0.00000000E+00 -2.48579481E-01  0.00000000E+00  0.00000000E+00  0.00000000E+00
  1.39514712E+00  0.00000000E+00  0.00000000E+00  0.00000000E+00  0.00000000E+00
  0.00000000E+00  0.00000000E+00  0.00000000E+00  0.00000000E+00 -9.27645894E-01
  9.27645894E-01  0.00000000E+00  0.00000000E+00  0.00000000E+00  0.00000000E+00
  7.67616195E-02  0.00000000E+00  0.00000000E+00  0.00000000E+00 -2.48579481E-01
  0.00000000E+00  0.00000000E+00  0.00000000E+00  1.39514712E+00  0.00000000E+00
  0.00000000E+00  0.00000000E+00  0.00000000E+00  0.00000000E+00  0.00000000E+00
  0.00000000E+00  0.00000000E+00  0.00000000E+00  0.00000000E+00  0.00000000E+00
  9.27645894E-01 -9.27645894E-01 -2.24316747E-02  7.94955074E-02  0.00000000E+00
  0.00000000E+00  0.00000000E+00 -9.90256175E-02  0.00000000E+00  0.00000000E+00
  0.00000000E+00  1.72568590E+00  0.00000000E+00  0.00000000E+00  0.00000000E+00
 -4.85837569E-16  0.00000000E+00  0.00000000E+00  2.91431862E-15  0.00000000E+00
 -6.32760481E-01 -6.32760481E-01 -6.32760481E-01 -6.32760481E-01 -6.32760481E-01
 -6.32760481E-01
Orthonormal basis                          R   N=         576
  2.87593561E-02  6.72245917E-02  0.00000000E+00  0.00000000E+00  0.00000000E+00
  1.54720418E-01  0.00000000E+00  0.00000000E+00  0.00000000E+00  4.41059846E-01
  0.00000000E+00  0.00000000E+00  0.00000000E+00  1.68798216E-17  0.00000000E+00
  0.00000000E+00  1.33258092E-17  0.00000000E+00  2.04099163E-01  2.04099163E-01
  2.04099163E-01  2.04099163E-01  2.04099163E-01  2.04099163E-01  4.63040560E-01
  5.69286770E-01  0.00000000E+00  0.00000000E+00  0.00000000E+00  3.25971433E-01
  0.00000000E+00  0.00000000E+00  0.00000000E+00 -1.00435710E-01  0.00000000E+00
  0.00000000E+00  0.00000000E+00  7.10319125E-17  0.00000000E+00  0.00000000E+00
  7.60668381E-17  0.00000000E+00 -4.71364798E-02 -4.71364798E-02 -4.71364798E-02
 -4.71364798E-02 -4.71364798E-02 -4.71364798E-02  3.10674568E-18 -8.87819546E-18
  0.00000000E+00  0.00000000E+00  0.00000000E+00  1.76504791E-17  0.00000000E+00
  0.00000000E+00  0.00000000E+00 -1.46301551E-17  0.00000000E+00  0.00000000E+00
  0.00000000E+00  6.83670721E-01  0.00000000E+00  0.00000000E+00 -6.08455552E-01
  0.00000000E+00  1.61706587E-01  1.61706587E-01  4.37817644E-02  4.37817644E-02
 -2.05488351E-01 -2.05488351E-01  3.79120418E-15 -3.66049279E-16  0.00000000E+00
  0.00000000E+00  0.00000000E+00 -4.62682629E-15  0.00000000E+00  0.00000000E+00
  0.00000000E+00  4.66072437E-16  0.00000000E+00  0.00000000E+00  0.00000000E+00
  6.08455552E-01  0.00000000E+00  0.00000000E+00  6.83670721E-01  0.00000000E+00
  1.43916168E-01  1.43916168E-01 -2.12000096E-01 -2.12000096E-01  6.80839279E-02
  6.80839279E-02 -6.44291509E-01  3.37466883E-02  0.00000000E+00  0.00000000E+00
  0.00000000E+00  7.82381217E-01  0.00000000E+00  0.00000000E+00  0.00000000E+00
 -7.94913527E-02  0.00000000E+00  0.00000000E+00  0.00000000E+00  4.05015870E-15
  0.00000000E+00  0.00000000E+00  4.48787650E-15  0.00000000E+00 -5.69405432E-02
 -5.69405432E-02 -5.69405432E-02 -5.69405432E-02 -5.69405432E-02 -5.69405432E-02
 -1.12433439E-17  3.21302787E-17  0.00000000E+00  0.00000000E+00  0.00000000E+00
 -7.86025835E-17  0.00000000E+00  0.00000000E+00  0.00000000E+00 -8.28020239E-17
  0.00000000E+00  0.00000000E+00  0.00000000E+00  2.56923704E-01  0.00000000E+00
  0.00000000E+00 -3.15756484E-01  0.00000000E+00 -3.62078044E-01 -3.62078044E-01
 -2.04333660E-01 -2.04333660E-01  5.66411704E-01  5.66411704E-01  4.28913475E-16
 -1.08046961E-16  0.00000000E+00  0.00000000E+00  0.00000000E+00 -4.92288528E-16
  0.00000000E+00  0.00000000E+00  0.00000000E+00  1.89294269E-16  0.00000000E+00
  0.00000000E+00  0.00000000E+00  3.15756484E-01  0.00000000E+00  0.00000000E+00
  2.56923704E-01  0.00000000E+00 -4.44990043E-01 -4.44990043E-01  5.36063806E-01
  5.36063806E-01 -9.10737629E-02 -9.10737629E-02 -7.50570891E-01  9.99333894E-01
  0.00000000E+00  0.00000000E+00  0.00000000E+00 -6.41037047E-01  0.00000000E+00
  0.00000000E+00  0.00000000E+00 -1.89446667E-02  0.00000000E+00  0.00000000E+00
  0.00000000E+00  1.38649819E-16  0.00000000E+00  0.00000000E+00  1.55699562E-16
  0.00000000E+00  5.05827437E-02  5.05827437E-02  5.05827437E-02  5.05827437E-02
  5.05827437E-02  5.05827437E-02 -3.98538457E-02  1.08224627E-01  0.00000000E+00
  0.00000000E+00  0.00000000E+00 -1.30147173E-01  0.00000000E+00  0.00000000E+00
  0.00000000E+00  1.75406360E+00  0.00000000E+00  0.00000000E+00  0.00000000E+00
  3.46192905E-16  0.00000000E+00  0.00000000E+00 -2.51504565E-17  0.00000000E+00
 -6.20319204E-01 -6.20319204E-01 -6.20319204E-01 -6.20319204E-01 -6.20319204E-01
 -6.20319204E-01  0.00000000E+00  0.00000000E+00  0.00000000E+00  0.00000000E+00
  0.00000000E+00  0.00000000E+00  0.00000000E+00  0.00000000E+00  0.00000000E+00
  0.00000000E+00  0.00000000E+00  0.00000000E+00  0.00000000E+00  0.00000000E+00
  0.00000000E+00  0.00000000E+00  0.00000000E+00  1.00000000E+00  0.00000000E+00
  0.00000000E+00  0.00000000E+00  0.00000000E+00  0.00000000E+00  0.00000000E+00
  0.00000000E+00  0.00000000E+00  0.00000000E+00  0.00000000E+00  0.00000000E+00
  0.00000000E+00  0.00000000E+00  0.00000000E+00  0.00000000E+00  0.00000000E+00
  0.00000000E+00  0.00000000E+00  0.00000000E+00  0.00000000E+00  1.00000000E+00
  0.00000000E+00  0.00000000E+00  0.00000000E+00  0.00000000E+00  0.00000000E+00
  0.00000000E+00  0.00000000E+00  0.00000000E+00  0.00000000E+00  0.00000000E+00
  0.00000000E+00  0.00000000E+00  0.00000000E+00  0.00000000E+00  0.00000000E+00
  0.00000000E+00  0.00000000E+00  0.00000000E+00  0.00000000E+00  0.00000000E+00
  0.00000000E+00  0.00000000E+00  0.00000000E+00  0.00000000E+00  1.00000000E+00
  0.00000000E+00  0.00000000E+00  0.00000000E+00  0.00000000E+00  0.00000000E+00
  0.00000000E+00  0.00000000E+00  0.00000000E+00  0.00000000E+00  0.00000000E+00
  0.00000000E+00  0.00000000E+00  1.01947949E-01  0.00000000E+00  0.00000000E+00
  0.00000000E+00  2.11087960E-01  0.00000000E+00  0.00000000E+00  0.00000000E+00
  5.15854712E-01  0.00000000E+00  0.00000000E+00  0.00000000E+00  0.00000000E+00
  0.00000000E+00  3.50109828E-01 -3.50109828E-01  0.00000000E+00  0.00000000E+00
  0.00000000E+00  0.00000000E+00  0.00000000E+00  0.00000000E+00  0.00000000E+00
  0.00000000E+00  6.21600379E-01  0.00000000E+00  0.00000000E+00  0.00000000E+00
  5.61302238E-01  0.00000000E+00  0.00000000E+00  0.00000000E+00 -1.44869689E-01
  0.00000000E+00  0.00000000E+00  0.00000000E+00  0.00000000E+00  0.00000000E+00
 -1.52985304E-01  1.52985304E-01  0.00000000E+00  0.00000000E+00  0.00000000E+00
  0.00000000E+00  0.00000000E+00  0.00000000E+00  0.00000000E+00  0.00000000E+00
 -8.49137477E-01  0.00000000E+00  0.00000000E+00  0.00000000E+00  8.61172117E-01
  0.00000000E+00  0.00000000E+00  0.00000000E+00  3.52710072E-02  0.00000000E+00
  0.00000000E+00  0.00000000E+00  0.00000000E+00  0.00000000E+00 -1.61963401E-01
  1.61963401E-01  0.00000000E+00  0.00000000E+00  0.00000000E+00  0.00000000E+00
  0.00000000E+00  0.00000000E+00  0.00000000E+00  0.00000000E+00  1.20040467E-01
  0.00000000E+00  0.00000000E+00  0.00000000E+00 -2.91359935E-01  0.00000000E+00
  0.00000000E+00  0.00000000E+00  1.37137451E+00  0.00000000E+00  0.00000000E+00
  0.00000000E+00  0.00000000E+00  0.00000000E+00 -9.39941209E-01  9.39941209E-01
  0.00000000E+00  0.00000000E+00  0.00000000E+00  0.00000000E+00  0.00000000E+00
  0.00000000E+00  0.00000000E+00  1.01947949E-01  0.00000000E+00  0.00000000E+00
  0.00000000E+00  2.11087960E-01  0.00000000E+00  0.00000000E+00  0.00000000E+00
  5.15854712E-01  0.00000000E+00  0.00000000E+00  0.00000000E+00  0.00000000E+00
  0.00000000E+00  0.00000000E+00  0.00000000E+00  0.00000000E+00  3.50109828E-01
 -3.50109828E-01  0.00000000E+00  0.00000000E+00  0.00000000E+00  0.00000000E+00
  0.00000000E+00  6.21600379E-01  0.00000000E+00  0.00000000E+00  0.00000000E+00
  5.61302238E-01  0.00000000E+00  0.00000000E+00  0.00000000E+00 -1.44869689E-01
  0.00000000E+00  0.00000000E+00  0.00000000E+00  0.00000000E+00  0.00000000E+00