conh36 b3lyp/sto-3G                                                     
SP        RB3LYP                                                      STO-3G              
Number of atoms                            I               25
Info1-9                                    I   N=           9
          35          34           0           0           0         110
           1          18        -502
Full Title                                 C   N=           2
conh36 b3lyp/sto-3G     
Route                                      C   N=           2
#p b3lyp/sto-3g         
Charge                                     I                3
Multiplicity                               I                1
Number of electrons                        I               84
Number of alpha electrons                  I               42
Number of beta electrons                   I               42
Number of basis functions                  I               66
Number of independent functions            I               66
Number of point charges in /Mol/           I                0
Number of translation vectors              I                0
Atomic numbers                             I   N=          25
          27           7           1           1           7           1
           1           7           1           1           7           1
           1           7           1           1           7           1
           1           1           1           1           1           1
           1
Nuclear charges                            R   N=          25
  2.70000000E+01  7.00000000E+00  1.00000000E+00  1.00000000E+00  7.00000000E+00
  1.00000000E+00  1.00000000E+00  7.00000000E+00  1.00000000E+00  1.00000000E+00
  7.00000000E+00  1.00000000E+00  1.00000000E+00  7.00000000E+00  1.00000000E+00
  1.00000000E+00  7.00000000E+00  1.00000000E+00  1.00000000E+00  1.00000000E+00
  1.00000000E+00  1.00000000E+00  1.00000000E+00  1.00000000E+00  1.00000000E+00
Current cartesian coordinates              R   N=          75
  2.54956399E-04  4.62941981E-04 -7.29195353E-04 -2.01703703E+00 -9.64863139E-01
 -3.08159505E+00 -3.75985660E+00 -1.24339654E-01 -3.21778761E+00 -1.17614308E+00
 -5.66251108E-01 -4.78280965E+00  2.28685047E+00  2.24701655E+00 -2.05532637E+00
  2.62779102E+00  3.97140446E+00 -1.23503972E+00  4.05754985E+00  1.52948050E+00
 -2.38944695E+00 -2.28427028E+00  2.99735889E+00  5.49986130E-01 -4.05333693E+00
  2.56829418E+00  1.21957846E+00 -1.62394698E+00  4.32573517E+00  1.79931242E+00
 -2.29466966E+00 -2.13682679E+00  2.16117985E+00 -1.54448081E+00 -3.82574697E+00
  2.74954986E+00 -2.83042120E+00 -1.27679694E+00  3.81536862E+00  2.01591002E+00
  8.17156378E-01  3.12368351E+00  2.41166234E+00 -7.31587428E-01  4.22262728E+00
  3.75380388E+00  1.61406352E+00  2.79590862E+00  2.29269590E+00 -2.96076812E+00
 -6.96586826E-01  1.54627132E+00 -4.70222994E+00 -2.83515372E-01  2.81790341E+00
 -3.12147090E+00 -2.55708267E+00 -2.40221435E+00 -2.86245245E+00 -3.19828942E+00
  1.63100514E+00  2.70561825E+00 -3.82174786E+00 -2.62991888E+00  4.02095964E+00
 -1.06127751E+00  1.16741649E+00  2.04654333E+00  4.36061130E+00 -3.97391501E+00
 -2.63930646E+00  1.33050916E+00  3.97759061E+00 -2.93793301E+00  2.63830572E-01
Number of symbols in /Mol/                 I                0
Force Field                                I                0
Atom Types                                 C   N=          25
                                                            
                                                            
                                                            
                                                            
                                                            
Int Atom Types                             I   N=          25
           0           0           0           0           0           0
           0           0           0           0           0           0
           0           0           0           0           0           0
           0           0           0           0           0           0
           0
MM charges                                 R   N=          25
  0.00000000E+00  0.00000000E+00  0.00000000E+00  0.00000000E+00  0.00000000E+00
  0.00000000E+00  0.00000000E+00  0.00000000E+00  0.00000000E+00  0.00000000E+00
  0.00000000E+00  0.00000000E+00  0.00000000E+00  0.00000000E+00  0.00000000E+00
  0.00000000E+00  0.00000000E+00  0.00000000E+00  0.00000000E+00  0.00000000E+00
  0.00000000E+00  0.00000000E+00  0.00000000E+00  0.00000000E+00  0.00000000E+00
Integer atomic weights                     I   N=          25
          59          14           1           1          14           1
           1          14           1           1          14           1
           1          14           1           1          14           1
           1           1           1           1           1           1
           1
Real atomic weights                        R   N=          25
  5.89331978E+01  1.40030740E+01  1.00782504E+00  1.00782504E+00  1.40030740E+01
  1.00782504E+00  1.00782504E+00  1.40030740E+01  1.00782504E+00  1.00782504E+00
  1.40030740E+01  1.00782504E+00  1.00782504E+00  1.40030740E+01  1.00782504E+00
  1.00782504E+00  1.40030740E+01  1.00782504E+00  1.00782504E+00  1.00782504E+00
  1.00782504E+00  1.00782504E+00  1.00782504E+00  1.00782504E+00  1.00782504E+00
Atom fragment info                         I   N=          25
           0           0           0           0           0           0
           0           0           0           0           0           0
           0           0           0           0           0           0
           0           0           0           0           0           0
           0
Atom residue num                           I   N=          25
           0           0           0           0           0           0
           0           0           0           0           0           0
           0           0           0           0           0           0
           0           0           0           0           0           0
           0
Nuclear spins                              I   N=          25
           7           2           1           1           2           1
           1           2           1           1           2           1
           1           2           1           1           2           1
           1           1           1           1           1           1
           1
Nuclear ZEff                               R   N=          25
 -2.53800000E+01 -4.55000000E+00 -1.00000000E+00 -1.00000000E+00 -4.55000000E+00
 -1.00000000E+00 -1.00000000E+00 -4.55000000E+00 -1.00000000E+00 -1.00000000E+00
 -4.55000000E+00 -1.00000000E+00 -1.00000000E+00 -4.55000000E+00 -1.00000000E+00
 -1.00000000E+00 -4.55000000E+00 -1.00000000E+00 -1.00000000E+00 -1.00000000E+00
 -1.00000000E+00 -1.00000000E+00 -1.00000000E+00 -1.00000000E+00 -1.00000000E+00
Nuclear ZNuc                               R   N=          25
  2.70000000E+01  7.00000000E+00  1.00000000E+00  1.00000000E+00  7.00000000E+00
  1.00000000E+00  1.00000000E+00  7.00000000E+00  1.00000000E+00  1.00000000E+00
  7.00000000E+00  1.00000000E+00  1.00000000E+00  7.00000000E+00  1.00000000E+00
  1.00000000E+00  7.00000000E+00  1.00000000E+00  1.00000000E+00  1.00000000E+00
  1.00000000E+00  1.00000000E+00  1.00000000E+00  1.00000000E+00  1.00000000E+00
Nuclear QMom                               R   N=          25
  4.20000000E+01  2.04400000E+00  0.00000000E+00  0.00000000E+00  2.04400000E+00
  0.00000000E+00  0.00000000E+00  2.04400000E+00  0.00000000E+00  0.00000000E+00
  2.04400000E+00  0.00000000E+00  0.00000000E+00  2.04400000E+00  0.00000000E+00
  0.00000000E+00  2.04400000E+00  0.00000000E+00  0.00000000E+00  0.00000000E+00
  0.00000000E+00  0.00000000E+00  0.00000000E+00  0.00000000E+00  0.00000000E+00
Nuclear GFac                               R   N=          25
  4.62700000E+00  4.03761000E-01  2.79284600E+00  2.79284600E+00  4.03761000E-01
  2.79284600E+00  2.79284600E+00  4.03761000E-01  2.79284600E+00  2.79284600E+00
  4.03761000E-01  2.79284600E+00  2.79284600E+00  4.03761000E-01  2.79284600E+00
  2.79284600E+00  4.03761000E-01  2.79284600E+00  2.79284600E+00  2.79284600E+00
  2.79284600E+00  2.79284600E+00  2.79284600E+00  2.79284600E+00  2.79284600E+00
MicOpt                                     I   N=          25
          -1          -1          -1          -1          -1          -1
          -1          -1          -1          -1          -1          -1
          -1          -1          -1          -1          -1          -1
          -1          -1          -1          -1          -1          -1
          -1
Number of residues                         I                0
Number of secondary structures             I                0
SymInf integers                            I   N=          26
           1           1           1           1           1           0
           0           0           0           0           0           0
           0           0           0           0           0           0
           0           0           0           0           0           0
           0           0
RotTr to input orientation                 R   N=          12
 -1.00000000E+00  9.89535100E-06  0.00000000E+00 -9.89535100E-06 -1.00000000E+00
  0.00000000E+00  0.00000000E+00  0.00000000E+00  1.00000000E+00 -1.52046930E-07
 -4.34419798E-08 -2.38930889E-07
Number of contracted shells                I               35
Number of primitive shells                 I              105
Pure/Cartesian d shells                    I                0
Pure/Cartesian f shells                    I                0
Highest angular momentum                   I                2
Largest degree of contraction              I                3
Shell types                                I   N=          35
           0          -1          -1          -1          -2           0
          -1           0           0           0          -1           0
           0           0          -1           0           0           0
          -1           0           0           0          -1           0
           0           0          -1           0           0           0
           0           0           0           0           0
Number of primitives per shell             I   N=          35
           3           3           3           3           3           3
           3           3           3           3           3           3
           3           3           3           3           3           3
           3           3           3           3           3           3
           3           3           3           3           3           3
           3           3           3           3           3
Shell to atom map                          I   N=          35
           1           1           1           1           1           2
           2           3           4           5           5           6
           7           8           8           9          10          11
          11          12          13          14          14          15
          16          17          17          18          19          20
          21          22          23          24          25
Primitive exponents                        R   N=         105
  1.55729870E+03  2.83663903E+02  7.67705223E+01  1.21834474E+02  2.83117116E+01
  9.20784732E+00  9.48085168E+00  2.89196195E+00  1.11580883E+00  5.92115681E-01
  2.18527925E-01  9.65042359E-02  7.66452739E+00  2.33792515E+00  9.02044205E-01
  9.91061690E+01  1.80523124E+01  4.88566024E+00  3.78045588E+00  8.78496645E-01
  2.85714374E-01  3.42525091E+00  6.23913730E-01  1.68855404E-01  3.42525091E+00
  6.23913730E-01  1.68855404E-01  9.91061690E+01  1.80523124E+01  4.88566024E+00
  3.78045588E+00  8.78496645E-01  2.85714374E-01  3.42525091E+00  6.23913730E-01
  1.68855404E-01  3.42525091E+00  6.23913730E-01  1.68855404E-01  9.91061690E+01
  1.80523124E+01  4.88566024E+00  3.78045588E+00  8.78496645E-01  2.85714374E-01
  3.42525091E+00  6.23913730E-01  1.68855404E-01  3.42525091E+00  6.23913730E-01
  1.68855404E-01  9.91061690E+01  1.80523124E+01  4.88566024E+00  3.78045588E+00
  8.78496645E-01  2.85714374E-01  3.42525091E+00  6.23913730E-01  1.68855404E-01
  3.42525091E+00  6.23913730E-01  1.68855404E-01  9.91061690E+01  1.80523124E+01
  4.88566024E+00  3.78045588E+00  8.78496645E-01  2.85714374E-01  3.42525091E+00
  6.23913730E-01  1.68855404E-01  3.42525091E+00  6.23913730E-01  1.68855404E-01
  9.91061690E+01  1.80523124E+01  4.88566024E+00  3.78045588E+00  8.78496645E-01
  2.85714374E-01  3.42525091E+00  6.23913730E-01  1.68855404E-01  3.42525091E+00
  6.23913730E-01  1.68855404E-01  3.42525091E+00  6.23913730E-01  1.68855404E-01
  3.42525091E+00  6.23913730E-01  1.68855404E-01  3.42525091E+00  6.23913730E-01
  1.68855404E-01  3.42525091E+00  6.23913730E-01  1.68855404E-01  3.42525091E+00
  6.23913730E-01  1.68855404E-01  3.42525091E+00  6.23913730E-01  1.68855404E-01
Contraction coefficients                   R   N=         105
  1.54328967E-01  5.35328142E-01  4.44634542E-01 -9.99672292E-02  3.99512826E-01
  7.00115469E-01 -2.27763502E-01  2.17543604E-01  9.16676961E-01 -3.08844121E-01
  1.96064117E-02  1.13103444E+00  2.19767951E-01  6.55547363E-01  2.86573259E-01
  1.54328967E-01  5.35328142E-01  4.44634542E-01 -9.99672292E-02  3.99512826E-01
  7.00115469E-01  1.54328967E-01  5.35328142E-01  4.44634542E-01  1.54328967E-01
  5.35328142E-01  4.44634542E-01  1.54328967E-01  5.35328142E-01  4.44634542E-01
 -9.99672292E-02  3.99512826E-01  7.00115469E-01  1.54328967E-01  5.35328142E-01
  4.44634542E-01  1.54328967E-01  5.35328142E-01  4.44634542E-01  1.54328967E-01
  5.35328142E-01  4.44634542E-01 -9.99672292E-02  3.99512826E-01  7.00115469E-01
  1.54328967E-01  5.35328142E-01  4.44634542E-01  1.54328967E-01  5.35328142E-01
  4.44634542E-01  1.54328967E-01  5.35328142E-01  4.44634542E-01 -9.99672292E-02
  3.99512826E-01  7.00115469E-01  1.54328967E-01  5.35328142E-01  4.44634542E-01
  1.54328967E-01  5.35328142E-01  4.44634542E-01  1.54328967E-01  5.35328142E-01
  4.44634542E-01 -9.99672292E-02  3.99512826E-01  7.00115469E-01  1.54328967E-01
  5.35328142E-01  4.44634542E-01  1.54328967E-01  5.35328142E-01  4.44634542E-01
  1.54328967E-01  5.35328142E-01  4.44634542E-01 -9.99672292E-02  3.99512826E-01
  7.00115469E-01  1.54328967E-01  5.35328142E-01  4.44634542E-01  1.54328967E-01
  5.35328142E-01  4.44634542E-01  1.54328967E-01  5.35328142E-01  4.44634542E-01
  1.54328967E-01  5.35328142E-01  4.44634542E-01  1.54328967E-01  5.35328142E-01
  4.44634542E-01  1.54328967E-01  5.35328142E-01  4.44634542E-01  1.54328967E-01
  5.35328142E-01  4.44634542E-01  1.54328967E-01  5.35328142E-01  4.44634542E-01
P(S=P) Contraction coefficients            R   N=         105
  0.00000000E+00  0.00000000E+00  0.00000000E+00  1.55916275E-01  6.07683719E-01
  3.91957393E-01  4.95151116E-03  5.77766469E-01  4.84646037E-01 -1.21546860E-01
  5.71522760E-01  5.49894947E-01  0.00000000E+00  0.00000000E+00  0.00000000E+00
  0.00000000E+00  0.00000000E+00  0.00000000E+00  1.55916275E-01  6.07683719E-01
  3.91957393E-01  0.00000000E+00  0.00000000E+00  0.00000000E+00  0.00000000E+00
  0.00000000E+00  0.00000000E+00  0.00000000E+00  0.00000000E+00  0.00000000E+00
  1.55916275E-01  6.07683719E-01  3.91957393E-01  0.00000000E+00  0.00000000E+00
  0.00000000E+00  0.00000000E+00  0.00000000E+00  0.00000000E+00  0.00000000E+00
  0.00000000E+00  0.00000000E+00  1.55916275E-01  6.07683719E-01  3.91957393E-01
  0.00000000E+00  0.00000000E+00  0.00000000E+00  0.00000000E+00  0.00000000E+00
  0.00000000E+00  0.00000000E+00  0.00000000E+00  0.00000000E+00  1.55916275E-01
  6.07683719E-01  3.91957393E-01  0.00000000E+00  0.00000000E+00  0.00000000E+00
  0.00000000E+00  0.00000000E+00  0.00000000E+00  0.00000000E+00  0.00000000E+00
  0.00000000E+00  1.55916275E-01  6.07683719E-01  3.91957393E-01  0.00000000E+00
  0.00000000E+00  0.00000000E+00  0.00000000E+00  0.00000000E+00  0.00000000E+00
  0.00000000E+00  0.00000000E+00  0.00000000E+00  1.55916275E-01  6.07683719E-01
  3.91957393E-01  0.00000000E+00  0.00000000E+00  0.00000000E+00  0.00000000E+00
  0.00000000E+00  0.00000000E+00  0.00000000E+00  0.00000000E+00  0.00000000E+00
  0.00000000E+00  0.00000000E+00  0.00000000E+00  0.00000000E+00  0.00000000E+00
  0.00000000E+00  0.00000000E+00  0.00000000E+00  0.00000000E+00  0.00000000E+00
  0.00000000E+00  0.00000000E+00  0.00000000E+00  0.00000000E+00  0.00000000E+00
Coordinates of each shell                  R   N=         105
  2.54956399E-04  4.62941981E-04 -7.29195353E-04  2.54956399E-04  4.62941981E-04
 -7.29195353E-04  2.54956399E-04  4.62941981E-04 -7.29195353E-04  2.54956399E-04
  4.62941981E-04 -7.29195353E-04  2.54956399E-04  4.62941981E-04 -7.29195353E-04
 -2.01703703E+00 -9.64863139E-01 -3.08159505E+00 -2.01703703E+00 -9.64863139E-01
 -3.08159505E+00 -3.75985660E+00 -1.24339654E-01 -3.21778761E+00 -1.17614308E+00
 -5.66251108E-01 -4.78280965E+00  2.28685047E+00  2.24701655E+00 -2.05532637E+00
  2.28685047E+00  2.24701655E+00 -2.05532637E+00  2.62779102E+00  3.97140446E+00
 -1.23503972E+00  4.05754985E+00  1.52948050E+00 -2.38944695E+00 -2.28427028E+00
  2.99735889E+00  5.49986130E-01 -2.28427028E+00  2.99735889E+00  5.49986130E-01
 -4.05333693E+00  2.56829418E+00  1.21957846E+00 -1.62394698E+00  4.32573517E+00
  1.79931242E+00 -2.29466966E+00 -2.13682679E+00  2.16117985E+00 -2.29466966E+00
 -2.13682679E+00  2.16117985E+00 -1.54448081E+00 -3.82574697E+00  2.74954986E+00
 -2.83042120E+00 -1.27679694E+00  3.81536862E+00  2.01591002E+00  8.17156378E-01
  3.12368351E+00  2.01591002E+00  8.17156378E-01  3.12368351E+00  2.41166234E+00
 -7.31587428E-01  4.22262728E+00  3.75380388E+00  1.61406352E+00  2.79590862E+00
  2.29269590E+00 -2.96076812E+00 -6.96586826E-01  2.29269590E+00 -2.96076812E+00
 -6.96586826E-01  1.54627132E+00 -4.70222994E+00 -2.83515372E-01  2.81790341E+00
 -3.12147090E+00 -2.55708267E+00 -2.40221435E+00 -2.86245245E+00 -3.19828942E+00
  1.63100514E+00  2.70561825E+00 -3.82174786E+00 -2.62991888E+00  4.02095964E+00
 -1.06127751E+00  1.16741649E+00  2.04654333E+00  4.36061130E+00 -3.97391501E+00
 -2.63930646E+00  1.33050916E+00  3.97759061E+00 -2.93793301E+00  2.63830572E-01
Num ILSW                                   I              100
ILSW                                       I   N=         100
           0           0           0           0           2           0
           0           0           0           0         402          -1
           5           0           0           0           0           0
           0           0           0           0           0           0
           1           0           0           0           0           0
           0           0      100000           0          -1           0
           0           0           0           0           0           0
           0           0           0           1           0           0
           0 -2000000000           1           0           0           0
           0           0           4          52           0           0
           0           0           5           0           0           0
           0           0           0          25           0           1
           0           0           0           0           0           0
           0           0           0           0           0           0
           0           0           0           0           0           0
           0           0           0           0           0           0
           0           0           0           0
Num RLSW                                   I               52
RLSW                                       R   N=          52
  8.00000000E-01  7.20000000E-01  1.00000000E+00  8.10000000E-01  2.00000000E-01
  0.00000000E+00  0.00000000E+00  1.00000000E+00  0.00000000E+00  0.00000000E+00
  0.00000000E+00  0.00000000E+00  1.00000000E+00  0.00000000E+00  0.00000000E+00
  0.00000000E+00  0.00000000E+00  1.00000000E+00  0.00000000E+00  0.00000000E+00
  0.00000000E+00  0.00000000E+00  1.00000000E+00  0.00000000E+00  0.00000000E+00
  0.00000000E+00  0.00000000E+00  1.00000000E+00  0.00000000E+00  0.00000000E+00
  0.00000000E+00  0.00000000E+00  1.00000000E+00  0.00000000E+00  0.00000000E+00
  0.00000000E+00  0.00000000E+00  0.00000000E+00  1.00000000E+00  1.00000000E+00
  0.00000000E+00  1.00000000E+00  0.00000000E+00  0.00000000E+00  0.00000000E+00
  0.00000000E+00  0.00000000E+00  0.00000000E+00  0.00000000E+00  0.00000000E+00
  0.00000000E+00  0.00000000E+00
MxBond                                     I                6
NBond                                      I   N=          25
           6           4           1           1           4           1
           1           4           1           1           4           1
           1           4           1           1           4           1
           1           1           1           1           1           1
           1
IBond                                      I   N=         150
           2           5           8          11          14          17
           1           3           4          20           0           0
           2           0           0           0           0           0
           2           0           0           0           0           0
           1           6           7          21           0           0
           5           0           0           0           0           0
           5           0           0           0           0           0
           1           9          10          22           0           0
           8           0           0           0           0           0
           8           0           0           0           0           0
           1          12          13          24           0           0
          11           0           0           0           0           0
          11           0           0           0           0           0
           1          15          16          23           0           0
          14           0           0           0           0           0
          14           0           0           0           0           0
           1          18          19          25           0           0
          17           0           0           0           0           0
          17           0           0           0           0           0
           2           0           0           0           0           0
           5           0           0           0           0           0
           8           0           0           0           0           0
          14           0           0           0           0           0
          11           0           0           0           0           0
          17           0           0           0           0           0
RBond                                      R   N=         150
  1.00000000E+00  1.00000000E+00  1.00000000E+00  1.00000000E+00  1.00000000E+00
  1.00000000E+00  1.00000000E+00  1.00000000E+00  1.00000000E+00  1.00000000E+00
  0.00000000E+00  0.00000000E+00  1.00000000E+00  0.00000000E+00  0.00000000E+00
  0.00000000E+00  0.00000000E+00  0.00000000E+00  1.00000000E+00  0.00000000E+00
  0.00000000E+00  0.00000000E+00  0.00000000E+00  0.00000000E+00  1.00000000E+00
  1.00000000E+00  1.00000000E+00  1.00000000E+00  0.00000000E+00  0.00000000E+00
  1.00000000E+00  0.00000000E+00  0.00000000E+00  0.00000000E+00  0.00000000E+00
  0.00000000E+00  1.00000000E+00  0.00000000E+00  0.00000000E+00  0.00000000E+00
  0.00000000E+00  0.00000000E+00  1.00000000E+00  1.00000000E+00  1.00000000E+00
  1.00000000E+00  0.00000000E+00  0.00000000E+00  1.00000000E+00  0.00000000E+00
  0.00000000E+00  0.00000000E+00  0.00000000E+00  0.00000000E+00  1.00000000E+00
  0.00000000E+00  0.00000000E+00  0.00000000E+00  0.00000000E+00  0.00000000E+00
  1.00000000E+00  1.00000000E+00  1.00000000E+00  1.00000000E+00  0.00000000E+00
  0.00000000E+00  1.00000000E+00  0.00000000E+00  0.00000000E+00  0.00000000E+00
  0.00000000E+00  0.00000000E+00  1.00000000E+00  0.00000000E+00  0.00000000E+00
  0.00000000E+00  0.00000000E+00  0.00000000E+00  1.00000000E+00  1.00000000E+00
  1.00000000E+00  1.00000000E+00  0.00000000E+00  0.00000000E+00  1.00000000E+00
  0.00000000E+00  0.00000000E+00  0.00000000E+00  0.00000000E+00  0.00000000E+00
  1.00000000E+00  0.00000000E+00  0.00000000E+00  0.00000000E+00  0.00000000E+00
  0.00000000E+00  1.00000000E+00  1.00000000E+00  1.00000000E+00  1.00000000E+00
  0.00000000E+00  0.00000000E+00  1.00000000E+00  0.00000000E+00  0.00000000E+00
  0.00000000E+00  0.00000000E+00  0.00000000E+00  1.00000000E+00  0.00000000E+00
  0.00000000E+00  0.00000000E+00  0.00000000E+00  0.00000000E+00  1.00000000E+00
  0.00000000E+00  0.00000000E+00  0.00000000E+00  0.00000000E+00  0.00000000E+00
  1.00000000E+00  0.00000000E+00  0.00000000E+00  0.00000000E+00  0.00000000E+00
  0.00000000E+00  1.00000000E+00  0.00000000E+00  0.00000000E+00  0.00000000E+00
  0.00000000E+00  0.00000000E+00  1.00000000E+00  0.00000000E+00  0.00000000E+00
  0.00000000E+00  0.00000000E+00  0.00000000E+00  1.00000000E+00  0.00000000E+00
  0.00000000E+00  0.00000000E+00  0.00000000E+00  0.00000000E+00  1.00000000E+00
  0.00000000E+00  0.00000000E+00  0.00000000E+00  0.00000000E+00  0.00000000E+00
Virial Ratio                               R      2.008282364236597E+00
SCF Energy                                 R     -1.701739375337702E+03
Total Energy                               R     -1.701739375337702E+03
RMS Density                                R      9.755419409860959E-09
Job Status                                 I                1
Nuclear derivative order                   I                0
External E-field                           R   N=          35
  0.00000000E+00  0.00000000E+00  0.00000000E+00  0.00000000E+00  0.00000000E+00
  0.00000000E+00  0.00000000E+00  0.00000000E+00  0.00000000E+00  0.00000000E+00
  0.00000000E+00  0.00000000E+00  0.00000000E+00  0.00000000E+00  0.00000000E+00
  0.00000000E+00  0.00000000E+00  0.00000000E+00  0.00000000E+00  0.00000000E+00
  0.00000000E+00  0.00000000E+00  0.00000000E+00  0.00000000E+00  0.00000000E+00
  0.00000000E+00  0.00000000E+00  0.00000000E+00  0.00000000E+00  0.00000000E+00
  0.00000000E+00  0.00000000E+00  0.00000000E+00  0.00000000E+00  0.00000000E+00
IOpCl                                      I                0
IROHF                                      I                0
Alpha Orbital Energies                     R   N=          66
 -2.75331185E+02 -3.27828795E+01 -2.90531107E+01 -2.90530418E+01 -2.90530367E+01
 -1.47080469E+01 -1.47078624E+01 -1.47078394E+01 -1.47078275E+01 -1.47073931E+01
 -1.47073746E+01 -4.19246817E+00 -2.89451568E+00 -2.89435677E+00 -2.89434847E+00
 -1.39708645E+00 -1.37752766E+00 -1.37743103E+00 -1.37741244E+00 -1.37008750E+00
 -1.37005545E+00 -9.89459241E-01 -9.88999272E-01 -9.88938618E-01 -9.77771513E-01
 -9.77532792E-01 -9.77453182E-01 -9.60463000E-01 -9.60367427E-01 -9.59573670E-01
 -9.43220197E-01 -9.41849321E-01 -9.41832785E-01 -9.38943608E-01 -8.40070546E-01
 -8.39979115E-01 -8.39906984E-01 -8.17725642E-01 -8.17617037E-01 -4.94688911E-01
 -4.94539270E-01 -4.94533806E-01 -2.72805332E-01 -2.71976353E-01 -2.71893843E-01
 -2.04611277E-01 -2.04450575E-01 -1.99817484E-01 -1.42736701E-01 -1.42585318E-01
 -1.25820853E-01 -1.22006417E-01 -1.21418881E-01 -1.21148229E-01 -1.16771436E-01
 -1.16622507E-01 -1.12934635E-01 -1.06557705E-01 -9.29134821E-02 -9.25859129E-02
 -7.63081901E-02 -7.60653599E-02 -2.25270589E-02  1.38343319E-02  1.39654975E-02
  2.42529792E-02
Alpha MO coefficients                      R   N=        4356
  9.93290134E-01  1.70896980E-02  3.07837308E-09  6.81170506E-09 -9.31586623E-09
 -2.39721656E-03  3.36191239E-09  2.97765717E-09 -2.07996980E-08  6.67801518E-04
 -9.53533826E-09  7.97551467E-09  1.56361120E-07 -1.45870984E-08  1.38446788E-08
  4.49897985E-09  3.52091827E-08  8.53919713E-09  9.00282051E-06 -9.14305129E-05
 -3.84721508E-05 -1.95838333E-05 -5.81595394E-05 -3.38479638E-05 -3.34763230E-05
  9.00650483E-06 -9.14226863E-05  4.35381655E-05  4.36148437E-05 -3.81258158E-05
 -3.56859432E-05 -3.38603565E-05  9.01772223E-06 -9.14641175E-05 -4.35227348E-05
  5.72808211E-05  9.18982740E-06 -3.38195783E-05 -3.34612588E-05  9.02682102E-06
 -9.14992666E-05 -4.38467254E-05 -3.97049885E-05  4.20181669E-05 -3.34529950E-05
 -3.56746577E-05  9.01072058E-06 -9.15227879E-05  3.84493018E-05  1.42529308E-05
  5.97554068E-05 -3.57247990E-05 -3.37946134E-05  9.02189772E-06 -9.14486201E-05
  4.37868214E-05 -5.59923542E-05 -1.44664003E-05 -3.34670982E-05 -3.56172264E-05
 -3.56873044E-05 -3.34755996E-05 -3.56677510E-05 -3.35074604E-05 -3.37322840E-05
 -3.37827977E-05 -4.28284273E-01  1.05629842E+00  1.69305058E-06  3.23166245E-06
 -5.96747960E-06  7.29418433E-02 -6.94784320E-09  7.73755572E-08  2.82962263E-07
 -1.71247042E-02  1.89910749E-07 -3.11554659E-07 -3.90868941E-06 -1.94039373E-07
 -2.73639717E-07 -9.13979007E-08 -4.68300730E-09 -1.60213894E-07 -2.16979298E-04
  2.34280235E-03  9.87785655E-04  5.02280863E-04  1.49347067E-03  8.68651153E-04
  8.59152518E-04 -2.17070135E-04  2.34263679E-03 -1.11788407E-03 -1.11943418E-03
  9.79327787E-04  9.15269340E-04  8.68968731E-04 -2.17333554E-04  2.34365681E-03
  1.11744250E-03 -1.47052919E-03 -2.36530280E-04  8.67914820E-04  8.58749115E-04
 -2.17544394E-04  2.34449341E-03  1.12564964E-03  1.01980091E-03 -1.07835148E-03
  8.58518096E-04  9.14946265E-04 -2.17168174E-04  2.34515165E-03 -9.87191888E-04
 -3.66524983E-04 -1.53411737E-03  9.16247767E-04  8.67296855E-04 -2.17429658E-04
  2.34323055E-03 -1.12412663E-03  1.43769907E-03  3.70842511E-04  8.58884964E-04
  9.13490580E-04  9.15295547E-04  8.59131941E-04  9.14788478E-04  8.59938615E-04