ethene b3lyp/sto-3G                                                     
SP        UB3LYP                                                      STO-3G              
Number of atoms                            I                6
Info1-9                                    I   N=           9
          16          15           0           0           0         110
           1          18        -502
Full Title                                 C   N=           2
ethene b3lyp/sto-3G     
Route                                      C   N=           2
#p b3lyp/sto-3g         
Charge                                     I                0
Multiplicity                               I                3
Number of electrons                        I               16
Number of alpha electrons                  I                9
Number of beta electrons                   I                7
Number of basis functions                  I               14
Number of independent functions            I               14
Number of point charges in /Mol/           I                0
Number of translation vectors              I                0
Atomic numbers                             I   N=           6
           6           6           1           1           1           1
Nuclear charges                            R   N=           6
  6.00000000E+00  6.00000000E+00  1.00000000E+00  1.00000000E+00  1.00000000E+00
  1.00000000E+00
Current cartesian coordinates              R   N=          18
  4.20916774E-24  1.32348898E-23 -1.25948746E+00 -1.54242733E-16 -1.32348898E-23
  1.25948746E+00  2.46519033E-32  1.75858100E+00 -2.35822707E+00 -2.15364059E-16
 -1.75858100E+00 -2.35822707E+00 -2.88799524E-16  1.75858100E+00  2.35822707E+00
 -2.15364059E-16 -1.75858100E+00  2.35822707E+00
Number of symbols in /Mol/                 I                0
Force Field                                I                0
Atom Types                                 C   N=           6
                                                            
            
Int Atom Types                             I   N=           6
           0           0           0           0           0           0
MM charges                                 R   N=           6
  0.00000000E+00  0.00000000E+00  0.00000000E+00  0.00000000E+00  0.00000000E+00
  0.00000000E+00
Integer atomic weights                     I   N=           6
          12          12           1           1           1           1
Real atomic weights                        R   N=           6
  1.20000000E+01  1.20000000E+01  1.00782504E+00  1.00782504E+00  1.00782504E+00
  1.00782504E+00
Atom fragment info                         I   N=           6
           0           0           0           0           0           0
Atom residue num                           I   N=           6
           0           0           0           0           0           0
Nuclear spins                              I   N=           6
           0           0           1           1           1           1
Nuclear ZEff                               R   N=           6
 -3.60000000E+00 -3.60000000E+00 -1.00000000E+00 -1.00000000E+00 -1.00000000E+00
 -1.00000000E+00
Nuclear ZNuc                               R   N=           6
  6.00000000E+00  6.00000000E+00  1.00000000E+00  1.00000000E+00  1.00000000E+00
  1.00000000E+00
Nuclear QMom                               R   N=           6
  0.00000000E+00  0.00000000E+00  0.00000000E+00  0.00000000E+00  0.00000000E+00
  0.00000000E+00
Nuclear GFac                               R   N=           6
  0.00000000E+00  0.00000000E+00  2.79284600E+00  2.79284600E+00  2.79284600E+00
  2.79284600E+00
MicOpt                                     I   N=           6
          -1          -1          -1          -1          -1          -1
Number of residues                         I                0
Number of secondary structures             I                0
SymInf integers                            I   N=          26
           4           8           1           1           1          -1
          -1           1          -1           1          -1           1
          -1          -1          -1           1           1           1
          -1           1           1           1          -1          -1
          -1          -1
RotTr to input orientation                 R   N=          12
  2.40006699E-24 -6.12323400E-17 -1.00000000E+00  1.00000000E+00  3.91960685E-08
  0.00000000E+00  3.91960685E-08 -1.00000000E+00  6.12323400E-17  1.18107883E-07
 -1.18107883E-07  0.00000000E+00
Number of contracted shells                I                8
Number of primitive shells                 I               24
Pure/Cartesian d shells                    I                0
Pure/Cartesian f shells                    I                0
Highest angular momentum                   I                1
Largest degree of contraction              I                3
Shell types                                I   N=           8
           0          -1           0          -1           0           0
           0           0
Number of primitives per shell             I   N=           8
           3           3           3           3           3           3
           3           3
Shell to atom map                          I   N=           8
           1           1           2           2           3           4
           5           6
Primitive exponents                        R   N=          24
  7.16168373E+01  1.30450963E+01  3.53051216E+00  2.94124936E+00  6.83483096E-01
  2.22289916E-01  7.16168373E+01  1.30450963E+01  3.53051216E+00  2.94124936E+00
  6.83483096E-01  2.22289916E-01  3.42525091E+00  6.23913730E-01  1.68855404E-01
  3.42525091E+00  6.23913730E-01  1.68855404E-01  3.42525091E+00  6.23913730E-01
  1.68855404E-01  3.42525091E+00  6.23913730E-01  1.68855404E-01
Contraction coefficients                   R   N=          24
  1.54328967E-01  5.35328142E-01  4.44634542E-01 -9.99672292E-02  3.99512826E-01
  7.00115469E-01  1.54328967E-01  5.35328142E-01  4.44634542E-01 -9.99672292E-02
  3.99512826E-01  7.00115469E-01  1.54328967E-01  5.35328142E-01  4.44634542E-01
  1.54328967E-01  5.35328142E-01  4.44634542E-01  1.54328967E-01  5.35328142E-01
  4.44634542E-01  1.54328967E-01  5.35328142E-01  4.44634542E-01
P(S=P) Contraction coefficients            R   N=          24
  0.00000000E+00  0.00000000E+00  0.00000000E+00  1.55916275E-01  6.07683719E-01
  3.91957393E-01  0.00000000E+00  0.00000000E+00  0.00000000E+00  1.55916275E-01
  6.07683719E-01  3.91957393E-01  0.00000000E+00  0.00000000E+00  0.00000000E+00
  0.00000000E+00  0.00000000E+00  0.00000000E+00  0.00000000E+00  0.00000000E+00
  0.00000000E+00  0.00000000E+00  0.00000000E+00  0.00000000E+00
Coordinates of each shell                  R   N=          24
  4.20916775E-24  6.61744490E-24 -1.25948746E+00  4.20916775E-24  6.61744490E-24
 -1.25948746E+00 -1.54242733E-16 -1.00517329E-23  1.25948746E+00 -1.54242733E-16
 -1.00517329E-23  1.25948746E+00  0.00000000E+00  1.75858100E+00 -2.35822707E+00
 -2.15364059E-16 -1.75858100E+00 -2.35822707E+00 -2.88799524E-16  1.75858100E+00
  2.35822707E+00 -2.15364059E-16 -1.75858100E+00  2.35822707E+00
Num ILSW                                   I              100
ILSW                                       I   N=         100
           1           0           0           0           2           0
           0           0           0           0         402          -1
           5           0           0           0           0           0
           0           0           0           0           0           0
           1           0           0           0           0           0
           0           0      100000           0          -1           0
           0           0           0           0           0           0
           0           0           0           1           0           0
           0 -2000000000           1           0           0           0
           0           0           4          52           0           0
           0           0           5           0           0           0
           0           0           0           6           0           1
           0           0           0           0           0           0
           0           0           0           0           0           0
           0           0           0           0           0           0
           0           0           0           0           0           0
           0           0           0           0
Num RLSW                                   I               52
RLSW                                       R   N=          52
  8.00000000E-01  7.20000000E-01  1.00000000E+00  8.10000000E-01  2.00000000E-01
  0.00000000E+00  0.00000000E+00  1.00000000E+00  0.00000000E+00  0.00000000E+00
  0.00000000E+00  0.00000000E+00  1.00000000E+00  0.00000000E+00  0.00000000E+00
  0.00000000E+00  0.00000000E+00  1.00000000E+00  0.00000000E+00  0.00000000E+00
  0.00000000E+00  0.00000000E+00  1.00000000E+00  0.00000000E+00  0.00000000E+00
  0.00000000E+00  0.00000000E+00  1.00000000E+00  0.00000000E+00  0.00000000E+00
  0.00000000E+00  0.00000000E+00  1.00000000E+00  0.00000000E+00  0.00000000E+00
  0.00000000E+00  0.00000000E+00  0.00000000E+00  1.00000000E+00  1.00000000E+00
  0.00000000E+00  1.00000000E+00  0.00000000E+00  0.00000000E+00  0.00000000E+00
  0.00000000E+00  0.00000000E+00  0.00000000E+00  0.00000000E+00  0.00000000E+00
  0.00000000E+00  0.00000000E+00
MxBond                                     I                3
NBond                                      I   N=           6
           3           3           1           1           1           1
IBond                                      I   N=          18
           2           3           4           1           5           6
           1           0           0           1           0           0
           2           0           0           2           0           0
RBond                                      R   N=          18
  2.00000000E+00  1.00000000E+00  1.00000000E+00  2.00000000E+00  1.00000000E+00
  1.00000000E+00  1.00000000E+00  0.00000000E+00  0.00000000E+00  1.00000000E+00
  0.00000000E+00  0.00000000E+00  1.00000000E+00  0.00000000E+00  0.00000000E+00
  1.00000000E+00  0.00000000E+00  0.00000000E+00
Virial Ratio                               R      2.005874830222461E+00
SCF Energy                                 R     -7.743694974631167E+01
Total Energy                               R     -7.743694974631167E+01
S**2                                       R      2.006356077597695E+00
S**2 after annihilation                    R      2.000020396553252E+00
RMS Density                                R      5.003511126368328E-09
Job Status                                 I                1
Nuclear derivative order                   I                0
External E-field                           R   N=          35
  0.00000000E+00  0.00000000E+00  0.00000000E+00  0.00000000E+00  0.00000000E+00
  0.00000000E+00  0.00000000E+00  0.00000000E+00  0.00000000E+00  0.00000000E+00
  0.00000000E+00  0.00000000E+00  0.00000000E+00  0.00000000E+00  0.00000000E+00
  0.00000000E+00  0.00000000E+00  0.00000000E+00  0.00000000E+00  0.00000000E+00
  0.00000000E+00  0.00000000E+00  0.00000000E+00  0.00000000E+00  0.00000000E+00
  0.00000000E+00  0.00000000E+00  0.00000000E+00  0.00000000E+00  0.00000000E+00
  0.00000000E+00  0.00000000E+00  0.00000000E+00  0.00000000E+00  0.00000000E+00
IOpCl                                      I                1
IROHF                                      I                0
Alpha Orbital Energies                     R   N=          14
 -9.97452520E+00 -9.97399245E+00 -7.44916904E-01 -5.48102152E-01 -4.32828290E-01
 -3.81842679E-01 -3.12055444E-01 -2.87493403E-01 -2.47485071E-02  3.73616818E-01
  4.21862556E-01  4.31416195E-01  6.27890847E-01  6.70933765E-01
Beta Orbital Energies                      R   N=          14
 -9.95863879E+00 -9.95826624E+00 -6.85520401E-01 -5.10052455E-01 -4.19030903E-01
 -3.63416210E-01 -3.04796691E-01 -6.34706659E-02  2.18176139E-01  3.82924683E-01
  4.61852097E-01  4.64283549E-01  6.49103830E-01  7.17377190E-01
Alpha MO coefficients                      R   N=         196
  6.99814819E-01  4.00807191E-02  0.00000000E+00  0.00000000E+00  6.77900324E-03
 -6.99814819E-01 -4.00807191E-02  0.00000000E+00  0.00000000E+00  6.77900324E-03
 -6.67815573E-03 -6.67815573E-03  6.67815573E-03  6.67815573E-03  7.00744275E-01
  2.43424790E-02  0.00000000E+00  0.00000000E+00 -3.11628695E-03  7.00744275E-01
  2.43424790E-02  0.00000000E+00  0.00000000E+00  3.11628695E-03 -6.39140659E-03
 -6.39140659E-03 -6.39140659E-03 -6.39140659E-03 -1.82835139E-01  4.83940370E-01
  0.00000000E+00  0.00000000E+00  1.24431510E-01 -1.82835139E-01  4.83940370E-01
  0.00000000E+00  0.00000000E+00 -1.24431510E-01  9.79271989E-02  9.79271989E-02
  9.79271989E-02  9.79271989E-02 -1.44713553E-01  4.57366752E-01  0.00000000E+00
  0.00000000E+00 -1.92843162E-01  1.44713553E-01 -4.57366752E-01  0.00000000E+00
  0.00000000E+00 -1.92843162E-01  2.05281618E-01  2.05281618E-01 -2.05281618E-01
 -2.05281618E-01  0.00000000E+00  0.00000000E+00  0.00000000E+00  4.16696839E-01
  0.00000000E+00  0.00000000E+00  0.00000000E+00  0.00000000E+00  4.16696839E-01
  0.00000000E+00  2.41208338E-01 -2.41208338E-01  2.41208338E-01 -2.41208338E-01
 -7.88994525E-03 -2.74841227E-03  0.00000000E+00  0.00000000E+00  5.00625572E-01
 -7.88994525E-03 -2.74841227E-03  0.00000000E+00  0.00000000E+00 -5.00625572E-01
 -2.14624451E-01 -2.14624451E-01 -2.14624451E-01 -2.14624451E-01  0.00000000E+00
  0.00000000E+00  0.00000000E+00  4.00723933E-01  0.00000000E+00  0.00000000E+00
  0.00000000E+00  0.00000000E+00 -4.00723933E-01  0.00000000E+00  3.43566989E-01
 -3.43566989E-01 -3.43566989E-01  3.43566989E-01  0.00000000E+00  0.00000000E+00
  6.34938287E-01  0.00000000E+00  0.00000000E+00  0.00000000E+00  0.00000000E+00
  6.34938287E-01  0.00000000E+00  0.00000000E+00  0.00000000E+00  0.00000000E+00
  0.00000000E+00  0.00000000E+00  0.00000000E+00  0.00000000E+00  8.11237093E-01
  0.00000000E+00  0.00000000E+00  0.00000000E+00  0.00000000E+00 -8.11237093E-01
  0.00000000E+00  0.00000000E+00  0.00000000E+00  0.00000000E+00  0.00000000E+00
  0.00000000E+00  0.00000000E+00  0.00000000E+00  0.00000000E+00  6.83369527E-01
  0.00000000E+00  0.00000000E+00  0.00000000E+00  0.00000000E+00  6.83369527E-01
  0.00000000E+00 -6.24462627E-01  6.24462627E-01 -6.24462627E-01  6.24462627E-01
 -1.75067724E-01  1.08601859E+00  0.00000000E+00  0.00000000E+00 -1.19699240E-01
  1.75067724E-01 -1.08601859E+00  0.00000000E+00  0.00000000E+00 -1.19699240E-01
 -6.30805186E-01 -6.30805186E-01  6.30805186E-01  6.30805186E-01 -1.23305365E-01
  8.02152760E-01  0.00000000E+00  0.00000000E+00 -5.10549765E-01 -1.23305365E-01
  8.02152760E-01  0.00000000E+00  0.00000000E+00  5.10549765E-01 -6.25467673E-01
 -6.25467673E-01 -6.25467673E-01 -6.25467673E-01  0.00000000E+00  0.00000000E+00
  0.00000000E+00  9.37056763E-01  0.00000000E+00  0.00000000E+00  0.00000000E+00
  0.00000000E+00 -9.37056763E-01  0.00000000E+00 -6.04882938E-01  6.04882938E-01
  6.04882938E-01 -6.04882938E-01 -1.01079927E-01  7.81177122E-01  0.00000000E+00
  0.00000000E+00  1.16680613E+00  1.01079927E-01 -7.81177122E-01  0.00000000E+00
  0.00000000E+00  1.16680613E+00  1.67912271E-01  1.67912271E-01 -1.67912271E-01
 -1.67912271E-01
Beta MO coefficients                       R   N=         196
  7.00226122E-01  3.78714202E-02  0.00000000E+00  0.00000000E+00  6.35851628E-03
 -7.00226122E-01 -3.78714202E-02  0.00000000E+00  0.00000000E+00  6.35851628E-03
 -6.27503604E-03 -6.27503604E-03  6.27503604E-03  6.27503604E-03  7.01072069E-01
  2.30822189E-02  0.00000000E+00  0.00000000E+00 -2.84614757E-03  7.01072069E-01
  2.30822189E-02  0.00000000E+00  0.00000000E+00  2.84614757E-03 -6.00289607E-03
 -6.00289607E-03 -6.00289607E-03 -6.00289607E-03 -1.77313559E-01  4.55210820E-01
  0.00000000E+00  0.00000000E+00  1.32710022E-01 -1.77313559E-01  4.55210820E-01
  0.00000000E+00  0.00000000E+00 -1.32710022E-01  1.24157281E-01  1.24157281E-01
  1.24157281E-01  1.24157281E-01 -1.33615749E-01  3.92077002E-01  0.00000000E+00
  0.00000000E+00 -1.95601317E-01  1.33615749E-01 -3.92077002E-01  0.00000000E+00
  0.00000000E+00 -1.95601317E-01  2.37476791E-01  2.37476791E-01 -2.37476791E-01
 -2.37476791E-01  0.00000000E+00  0.00000000E+00  0.00000000E+00  3.96545717E-01
  0.00000000E+00  0.00000000E+00  0.00000000E+00  0.00000000E+00  3.96545717E-01
  0.00000000E+00  2.59356701E-01 -2.59356701E-01  2.59356701E-01 -2.59356701E-01
 -1.44934023E-02  2.61116271E-02  0.00000000E+00  0.00000000E+00  4.90762986E-01
 -1.44934023E-02  2.61116271E-02  0.00000000E+00  0.00000000E+00 -4.90762986E-01
 -2.27406452E-01 -2.27406452E-01 -2.27406452E-01 -2.27406452E-01  0.00000000E+00
  0.00000000E+00  0.00000000E+00  3.75245827E-01  0.00000000E+00  0.00000000E+00
  0.00000000E+00  0.00000000E+00 -3.75245827E-01  0.00000000E+00  3.59793358E-01
 -3.59793358E-01 -3.59793358E-01  3.59793358E-01  0.00000000E+00  0.00000000E+00
  6.34938287E-01  0.00000000E+00  0.00000000E+00  0.00000000E+00  0.00000000E+00
  6.34938287E-01  0.00000000E+00  0.00000000E+00  0.00000000E+00  0.00000000E+00
  0.00000000E+00  0.00000000E+00  0.00000000E+00  0.00000000E+00  8.11237093E-01
  0.00000000E+00  0.00000000E+00  0.00000000E+00  0.00000000E+00 -8.11237093E-01
  0.00000000E+00  0.00000000E+00  0.00000000E+00  0.00000000E+00  0.00000000E+00
  0.00000000E+00  0.00000000E+00  0.00000000E+00  0.00000000E+00  6.95256543E-01
  0.00000000E+00  0.00000000E+00  0.00000000E+00  0.00000000E+00  6.95256543E-01
  0.00000000E+00 -6.17145960E-01  6.17145960E-01 -6.17145960E-01  6.17145960E-01
 -1.28784661E-01  8.18422840E-01  0.00000000E+00  0.00000000E+00 -5.17988010E-01
 -1.28784661E-01  8.18422840E-01  0.00000000E+00  0.00000000E+00  5.17988010E-01
 -6.16229901E-01 -6.16229901E-01 -6.16229901E-01 -6.16229901E-01 -1.71143786E-01
  1.02862359E+00  0.00000000E+00  0.00000000E+00 -2.41145510E-01  1.71143786E-01
 -1.02862359E+00  0.00000000E+00  0.00000000E+00 -2.41145510E-01 -6.32328318E-01
 -6.32328318E-01  6.32328318E-01  6.32328318E-01  0.00000000E+00  0.00000000E+00
  0.00000000E+00  9.47547158E-01  0.00000000E+00  0.00000000E+00  0.00000000E+00
  0.00000000E+00 -9.47547158E-01  0.00000000E+00 -5.95374155E-01  5.95374155E-01
  5.95374155E-01 -5.95374155E-01 -1.18695696E-01  8.87265340E-01  0.00000000E+00
  0.00000000E+00  1.14740900E+00  1.18695696E-01 -8.87265340E-01  0.00000000E+00
  0.00000000E+00  1.14740900E+00  1.09641007E-01  1.09641007E-01 -1.09641007E-01
 -1.09641007E-01
Orthonormal basis                          R   N=         196
  1.08506582E-01  3.51970680E-01  0.00000000E+00  0.00000000E+00  1.11300759E-01
  1.08506582E-01  3.51970680E-01  0.00000000E+00  0.00000000E+00 -1.11300759E-01
  1.91356948E-01  1.91356948E-01  1.91356948E-01  1.91356948E-01  4.61205065E-02
  2.98816287E-02  0.00000000E+00  0.00000000E+00  5.17729552E-01  4.61205065E-02
  2.98816287E-02  0.00000000E+00  0.00000000E+00 -5.17729552E-01 -1.91123261E-01
 -1.91123261E-01 -1.91123261E-01 -1.91123261E-01  6.99035380E-01 -6.13865591E-02
  0.00000000E+00  0.00000000E+00 -1.34494702E-01  6.99035380E-01 -6.13865591E-02
  0.00000000E+00  0.00000000E+00  1.34494702E-01 -1.02620545E-01 -1.02620545E-01
 -1.02620545E-01 -1.02620545E-01 -1.92837884E-01  8.65853834E-01  0.00000000E+00
  0.00000000E+00 -4.77764968E-01 -1.92837884E-01  8.65853834E-01  0.00000000E+00
  0.00000000E+00  4.77764968E-01 -6.02683575E-01 -6.02683575E-01 -6.02683575E-01
 -6.02683575E-01  0.00000000E+00  0.00000000E+00  8.11237093E-01  0.00000000E+00
  0.00000000E+00  0.00000000E+00  0.00000000E+00 -8.11237093E-01  0.00000000E+00
  0.00000000E+00  0.00000000E+00  0.00000000E+00  0.00000000E+00  0.00000000E+00
  0.00000000E+00  0.00000000E+00  0.00000000E+00  4.31454225E-01  0.00000000E+00
  0.00000000E+00  0.00000000E+00  0.00000000E+00 -4.31454225E-01  0.00000000E+00
  3.23401604E-01 -3.23401604E-01 -3.23401604E-01  3.23401604E-01  0.00000000E+00
  0.00000000E+00  0.00000000E+00  9.23310510E-01  0.00000000E+00  0.00000000E+00
  0.00000000E+00  0.00000000E+00 -9.23310510E-01  0.00000000E+00 -6.15900192E-01
  6.15900192E-01  6.15900192E-01 -6.15900192E-01  1.14642154E-01  2.55186506E-01
  0.00000000E+00  0.00000000E+00 -2.50713927E-01 -1.14642154E-01 -2.55186506E-01
  0.00000000E+00  0.00000000E+00 -2.50713927E-01  2.52835313E-01  2.52835313E-01
 -2.52835313E-01 -2.52835313E-01  6.87615348E-01  2.33290465E-02  0.00000000E+00
  0.00000000E+00  9.35058192E-02 -6.87615348E-01 -2.33290465E-02  0.00000000E+00
  0.00000000E+00  9.35058192E-02 -1.21303767E-01 -1.21303767E-01  1.21303767E-01
  1.21303767E-01  7.70374019E-02 -2.22960200E-01  0.00000000E+00  0.00000000E+00
  9.22715306E-01 -7.70374019E-02  2.22960200E-01  0.00000000E+00  0.00000000E+00
  9.22715306E-01  5.52538084E-01  5.52538084E-01 -5.52538084E-01 -5.52538084E-01
 -2.44246190E-01  1.37298552E+00  0.00000000E+00  0.00000000E+00  6.99996099E-01
  2.44246190E-01 -1.37298552E+00  0.00000000E+00  0.00000000E+00  6.99996099E-01
 -2.90441424E-01 -2.90441424E-01  2.90441424E-01  2.90441424E-01  0.00000000E+00
  0.00000000E+00  0.00000000E+00  4.28408378E-01  0.00000000E+00  0.00000000E+00
  0.00000000E+00  0.00000000E+00  4.28408378E-01  0.00000000E+00  2.30414026E-01
 -2.30414026E-01  2.30414026E-01 -2.30414026E-01  0.00000000E+00  0.00000000E+00
  0.00000000E+00 -6.76089068E-01  0.00000000E+00  0.00000000E+00  0.00000000E+00
  0.00000000E+00 -6.76089068E-01  0.00000000E+00  6.28525585E-01 -6.28525585E-01
  6.28525585E-01 -6.28525585E-01  0.00000000E+00  0.00000000E+00  6.34938287E-01
  0.00000000E+00  0.00000000E+00  0.00000000E+00  0.00000000E+00  6.34938287E-01
  0.00000000E+00  0.00000000E+00  0.00000000E+00  0.00000000E+00  0.00000000E+00
  0.00000000E+00
Total SCF Density                          R   N=         105
  2.06653827E+00 -2.00320156E-01  8.09179318E-01  2.62584870E-20 -4.96788769E-19
  1.06125225E+00  2.62584753E-20 -4.96788549E-19 -9.24446373E-33  6.32273862E-01
  1.71533454E-03 -3.24527052E-02 -7.05902138E-18 -4.92183531E-19  6.00121979E-01
  2.88330976E-02 -7.23057736E-02 -1.90987387E-18 -1.90987302E-18 -1.24762429E-01
  2.06653827E+00 -7.23057736E-02  7.72804584E-02  4.53584567E-18  4.53584367E-18
  2.96303926E-01 -2.00320156E-01  8.09179318E-01  1.90987387E-18 -4.53584567E-18
 -2.54958993E-01  2.31111593E-33 -2.97119970E-18 -2.62584870E-20  4.96788769E-19
  1.06125225E+00  1.90987302E-18 -4.53584367E-18  2.31111593E-33  2.94956602E-02
 -7.32565247E-18 -2.62584753E-20  4.96788549E-19 -9.24446373E-33  6.32273862E-01
  1.24762429E-01 -2.96303926E-01 -2.97119970E-18 -7.32565247E-18 -4.49052487E-01
 -1.71533454E-03  3.24527052E-02 -7.05902138E-18 -4.92183531E-19  6.00121979E-01
 -1.14122326E-01  2.84759309E-01 -4.23227388E-18  4.76044012E-01 -2.76473111E-01
  2.68878499E-02 -8.82264217E-02  1.59551439E-18 -6.93289300E-02  1.04226910E-01
  5.94415641E-01 -1.14122326E-01  2.84759309E-01 -4.23227388E-18 -4.76044012E-01
 -2.76473111E-01  2.68878499E-02 -8.82264217E-02  1.59551439E-18  6.93289300E-02
  1.04226910E-01 -1.51458154E-01  5.94415641E-01  2.68878499E-02 -8.82264217E-02
 -1.59551439E-18 -6.93289300E-02 -1.04226910E-01 -1.14122326E-01  2.84759309E-01
  4.23227388E-18  4.76044012E-01  2.76473111E-01 -9.78029173E-02  1.46281433E-01
  5.94415641E-01  2.68878499E-02 -8.82264217E-02 -1.59551439E-18  6.93289300E-02
 -1.04226910E-01 -1.14122326E-01  2.84759309E-01  4.23227388E-18 -4.76044012E-01
  2.76473111E-01  1.46281433E-01 -9.78029173E-02 -1.51458154E-01  5.94415641E-01
Spin SCF Density                           R   N=         105
  3.89427990E-03 -1.87595515E-02  8.19990850E-02  8.90721704E-20 -3.96061288E-19
  1.06125225E+00  8.90721309E-20 -3.96061112E-19 -9.24446373E-33  3.61579901E-02
  5.81863574E-03 -2.58726868E-02 -1.61449413E-17 -4.52711001E-19  6.58465015E-03
 -1.13172805E-03  5.77841273E-03  2.59033437E-20  2.59033323E-20  1.69213483E-03
  3.89427990E-03  5.77841273E-03 -2.92652946E-02 -4.46375205E-20 -4.46375007E-20
 -2.91594412E-03 -1.87595515E-02  8.19990850E-02 -2.59033437E-20  4.46375205E-20
 -2.54958993E-01  2.31111593E-33  3.76950282E-18 -8.90721704E-20  3.96061288E-19
  1.06125225E+00 -2.59033323E-20  4.46375007E-20  2.31111593E-33 -3.38248937E-03
 -8.16516477E-20 -8.90721309E-20  3.96061112E-19 -9.24446373E-33  3.61579901E-02
 -1.69213483E-03  2.91594412E-03  3.76950282E-18 -8.16516477E-20 -8.71638214E-03
 -5.81863574E-03  2.58726868E-02 -1.61449413E-17 -4.52711001E-19  6.58465015E-03
  3.98151802E-03 -1.86622812E-03  1.02955635E-19  3.28522212E-04  6.72557245E-03
  4.93360765E-04 -3.36578429E-03  1.07017571E-19 -5.00059610E-03  6.99091826E-03
 -4.62174001E-02  3.98151802E-03 -1.86622812E-03  1.02955635E-19 -3.28522212E-04
  6.72557245E-03  4.93360765E-04 -3.36578429E-03  1.07017571E-19  5.00059610E-03
  6.99091826E-03 -5.22255963E-03 -4.62174001E-02  4.93360765E-04 -3.36578429E-03
 -1.07017571E-19 -5.00059610E-03 -6.99091826E-03  3.98151802E-03 -1.86622812E-03
 -1.02955635E-19  3.28522212E-04 -6.72557245E-03  5.10749119E-03  4.50395423E-04
 -4.62174001E-02  4.93360765E-04 -3.36578429E-03 -1.07017571E-19  5.00059610E-03
 -6.99091826E-03  3.98151802E-03 -1.86622812E-03 -1.02955635E-19 -3.28522212E-04
 -6.72557245E-03  4.50395423E-04  5.10749119E-03 -5.22255963E-03 -4.62174001E-02
Mulliken Charges                           R   N=           6
 -1.37561364E-01 -1.37561364E-01  6.87806821E-02  6.87806821E-02  6.87806821E-02
  6.87806821E-02
ONIOM Charges                              I   N=          16
           0           0           0           0           0           0
           0           0           0           0           0           0
           0           0           0           0
ONIOM Multiplicities                       I   N=          16
           3           0           0           0           0           0
           0           0           0           0           0           0
           0           0           0           0
Atom Layers                                I   N=           6
           1           1           1           1           1           1
Atom Modifiers                             I   N=           6
           0           0           0           0           0           0
Force Field                                I                0
Atom Modified Types                        C   N=           6
                                                            
            
Int Atom Modified Types                    I   N=           6
           0           0           0           0           0           0
Link Atoms                                 I   N=           6
           0           0           0           0           0           0
Atom Modified MM Charges                   R   N=           6
  0.00000000E+00  0.00000000E+00  0.00000000E+00  0.00000000E+00  0.00000000E+00
  0.00000000E+00
Link Distances                             R   N=          24
  0.00000000E+00  0.00000000E+00  0.00000000E+00  0.00000000E+00  0.00000000E+00
  0.00000000E+00  0.00000000E+00  0.00000000E+00  0.00000000E+00  0.00000000E+00
  0.00000000E+00  0.00000000E+00  0.00000000E+00  0.00000000E+00  0.00000000E+00
  0.00000000E+00  0.00000000E+00  0.00000000E+00  0.00000000E+00  0.00000000E+00
  0.00000000E+00  0.00000000E+00  0.00000000E+00  0.00000000E+00
Cartesian Gradient                         R   N=          18
  0.00000000E+00  0.00000000E+00  0.00000000E+00  0.00000000E+00  0.00000000E+00
  0.00000000E+00  0.00000000E+00  0.00000000E+00  0.00000000E+00  0.00000000E+00
  0.00000000E+00  0.00000000E+00  0.00000000E+00  0.00000000E+00  0.00000000E+00
  0.00000000E+00  0.00000000E+00  0.00000000E+00
Nonadiabatic coupling                      R   N=          18
  0.00000000E+00  0.00000000E+00  0.00000000E+00  0.00000000E+00  0.00000000E+00
  0.00000000E+00  0.00000000E+00  0.00000000E+00  0.00000000E+00  0.00000000E+00
  0.00000000E+00  0.00000000E+00  0.00000000E+00  0.00000000E+00  0.00000000E+00
  0.00000000E+00  0.00000000E+00  0.00000000E+00
Dipole Moment                              R   N=           3
 -2.02108918E-17 -3.46944695E-18  4.47488300E-16
Quadrupole Moment                          R   N=           6
 -5.42426732E-01  5.98724698E-01 -5.62979669E-02  2.77985651E-17  1.82675500E-18
 -7.90933558E-19
Anisotropic Hyperfine tensors              R   N=          36
  1.27469101E+00 -1.18722198E-18 -6.71735789E-01 -3.16691767E-18 -7.80625233E-18
 -6.02955220E-01  1.27469101E+00  3.15687139E-19 -6.71735789E-01 -6.81260821E-18
  2.38524809E-18 -6.02955220E-01 -3.77776786E-02  3.08041603E-19  5.14805640E-02
 -1.00110761E-18 -1.05499915E-01 -1.37028854E-02 -3.77776786E-02 -2.20622312E-18
  5.14805640E-02 -1.07218717E-18  1.05499915E-01 -1.37028854E-02 -3.77776786E-02
  3.22849233E-19  5.14805640E-02 -1.02335391E-18  1.05499915E-01 -1.37028854E-02
 -3.77776786E-02  3.13780475E-19  5.14805640E-02 -1.07935806E-18 -1.05499915E-01
 -1.37028854E-02
Isotropic Hyperfine splittings             R   N=           6
  1.10148776E-01  1.10148776E-01 -1.80189274E-02 -1.80189274E-02 -1.80189274E-02
 -1.80189274E-02
QEq coupling tensors                       R   N=          36
  3.81708512E-01  5.48603709E-17 -1.53366548E-01  5.56896508E-17 -1.94289032E-16
 -2.28341964E-01  3.81708512E-01 -1.88628581E-17 -1.53366548E-01 -9.52795010E-17
  6.10622662E-16 -2.28341964E-01  1.51217252E-01  2.14451298E-18 -1.65664158E-01
  1.92061275E-18  1.92622884E-01  1.44469065E-02  1.51217252E-01 -6.89256370E-17
 -1.65664158E-01 -4.14862245E-17 -1.92622884E-01  1.44469065E-02  1.51217252E-01
  4.25621309E-17 -1.65664158E-01  2.46901871E-17 -1.92622884E-01  1.44469065E-02
  1.51217252E-01 -1.96903512E-17 -1.65664158E-01  9.79622029E-18  1.92622884E-01
  1.44469065E-02