[Molden Format]
[Molpro variables]
_NUMVAR=                    645.0000000000000000
_PATCHLEVEL=                     20.0000000000000000
_EV2006=                      0.0367493088676916
_EV=                      0.0367493253439418
_KJOULE=                      0.0003808798324129
_KJOULE/MOL=                      0.0003808798324129
_CM=                      0.0000045563352673
_CM-1=                      0.0000045563352673
_KCAL=                      0.0015936011178156
_KCAL/MOL=                      0.0015936011178156
_KELVIN2006=                      0.0000031668288611
_KELVIN=                      0.0000031668148208
_HERTZ2006=                      0.0000000000000002
_HERTZ=                      0.0000000000000002
_HZ2006=                      0.0000000000000002
_HZ=                      0.0000000000000002
_TOA2006=                      0.5291772490000000
_TOA=                      0.5291772090000000
_TOANG2006=                      0.5291772490000000
_TOANG=                      0.5291772090000000
_TORAD=                      0.0174532925199433
_TOCM=                 219474.6306700000131968
_TODEBYE=                      2.5415800000000002
_TOEV2006=                     27.2113961000000018
_TOEV=                     27.2113839000000013
_TOHERTZ2006=       6579683899900000.0000000000000000
_TOHERTZ=       6579683920700000.0000000000000000
_TOHZ2006=       6579683899900000.0000000000000000
_TOHZ=       6579683920700000.0000000000000000
_TOK2006=                 315773.2999999999883585
_TOK=                 315774.7000000000116415
_TOKCAL=                    627.5095999999999776
_TOKELVIN2006=                 315773.2999999999883585
_TOKELVIN=                 315774.7000000000116415
_TOKJ=                   2625.5000000000000000
_TOKJOULE=                   2625.5000000000000000
_ANG2006=                      1.8897259885789233
_ANG=                      1.8897261314215066
_ANGSTROM2006=                      1.8897259885789233
_ANGSTROM=                      1.8897261314215066
_IGNORE_UNDEF=                      2.0000000000000000
_STRICTCHECK=                      0.0000000000000000
_SEW_ONEEL=                      0.0000000000000000
_CPPDONE=FALSE
_DKROLL_DONE=                      0.0000000000000000
_FOCKDONE=TRUE
_GRADONE=FALSE
_HESSDONE=FALSE
_INTDONE=TRUE
_SCFDONE=TRUE
_MODUL_AIMS=FALSE
_MODUL_CCSAPT=FALSE
_MODUL_MRCC=FALSE
_MRCC_EXEC=
_FITC_AO_SAVED=FALSE
_FITC_MO_SAVED=FALSE
_LSTYP=SEWARD
_INTYP=INTS
_GEOMTYP=ZMAT
_GRADTYP=ALASKA
_DIRECT=FALSE
_DKROLL=FALSE
_SYNCM=                      0.0000000000000000
_DFTNAME=                      0.0000000000000000
_DFTFUNC=                      0.0000000000000000
_BASIS=STO-3G
_BASISSETS=
_ZSIGNX=
_ZSIGNY=
_ZSIGNZ=
_ZCENTRE=
_ZSYMEL=
_ZPLANE=
_ZUNIT=
_ZORIENT=                      1.0000000000000000
_CHARGE=                      1.0000000000000000
_SCFCHARGE=                      1.0000000000000000
_MCCHARGE=                      1.0000000000000000
_CICHARGE=                      1.0000000000000000
_CCCHARGE=                      1.0000000000000000
_NELEC=                     26.0000000000000000
!NELEC=                     26.0000000000000000
_SCFNELEC=                     26.0000000000000000
_MCNELEC=                     26.0000000000000000
_CINELEC=                     26.0000000000000000
_CCNELEC=                     26.0000000000000000
_SPIN=                     26.0000000000000000
!SYMMETRY=                     26.0000000000000000
!SPIN=                      0.0000000000000000
_SCFSPIN=                      0.0000000000000000
_MCSPIN=                      0.0000000000000000
_CISPIN=                      0.0000000000000000
_CCSPIN=                      0.0000000000000000
_STATE=                      0.0000000000000000
_SCFSTATE=                      0.0000000000000000
_MCSTATE=                      0.0000000000000000
_CISTATE=                      0.0000000000000000
_SYMMETRY=                      0.0000000000000000
_SCFSYMMETRY=                      0.0000000000000000
_MCSYMMETRY=                      0.0000000000000000
_CISYMMETRY=                      0.0000000000000000
_CCSYMMETRY=                      0.0000000000000000
_SCFSYMM=                      0.0000000000000000
_MCSYMM=                      0.0000000000000000
_CISYMM=                      0.0000000000000000
_CCSYMM=                      0.0000000000000000
_SCFSYM=                      0.0000000000000000
_MCSYM=                      0.0000000000000000
_CISYM=                      0.0000000000000000
_CCSYM=                      0.0000000000000000
_WEIGHT=                      0.0000000000000000
_MCWEIGHT=                      0.0000000000000000
_LQUANT=                      0.0000000000000000
_MCLQUANT=                      0.0000000000000000
_OPTCONV=                      0.0000000000000000
_QSDSTEP=                      0.0000000000000000
_QSDIRC=                      0.0000000000000000
_PROGRAM=HF-SCF
_CPUSTEP=                      0.2600000000000000
_SYSSTEP=                      0.0000000000000000
_WALLSTEP=                      0.9600000000000000
!PERT=                      0.9600000000000000
!DFMP2=                      0.9600000000000000
!DFSCF=                      0.0000000000000000
!DFHFENERG=                      0.0000000000000000
!SCSGRD=                      0.0000000000000000
_ATCHARGE=                      0.0000000000000000
_BASINP=                    610.0000000000000000
_CARTESIAN=                    610.0000000000000000
_CFIT=                    610.0000000000000000
_CFIT_FRED=                    610.0000000000000000
_CFIT_FRED_THR=                    610.0000000000000000
_CHII2=                    610.0000000000000000
_CHIRS=                    610.0000000000000000
_COEFF=                    610.0000000000000000
_CPU2IDX_CFIT=                    610.0000000000000000
_CPU3IDX_CFIT=                    610.0000000000000000
_CPUASMBL_CFIT=                    610.0000000000000000
_CPUBLAS1=                    610.0000000000000000
_CPUBLAS2=                    610.0000000000000000
_CPUBLAS3=                    610.0000000000000000
_CPUINT_DTRAF=                    610.0000000000000000
_CPUSOLVE_CFIT=                    610.0000000000000000
_CPUTOT=                      0.5000000000000000
_CPUTR1_CFIT=                      0.5000000000000000
_CPUTR2_CFIT=                      0.5000000000000000
_CPUINV_CFIT=                      0.5000000000000000
_CPUFIT_CFIT=                      0.5000000000000000
_CPUTRANS_CFIT=                      0.5000000000000000
_CPUSCREEN_CFIT=                      0.5000000000000000
_CPUTRANS_DTRAF=                      0.5000000000000000
_CPUTRA_DTRAF=                      0.5000000000000000
_CPUTRIPL=                      0.5000000000000000
_SYSTRIPL=                      0.5000000000000000
_WALLTRIPL=                      0.5000000000000000
_CPUCCSD=                      0.5000000000000000
_SYSCCSD=                      0.5000000000000000
_WALLCCSD=                      0.5000000000000000
_CPUSORT=                      0.0200000000000000
_SYSSORT=                      0.0100000000000000
_WALLSORT=                      0.1200000010430813
_CPUF12=                      0.1200000010430813
_SYSF12=                      0.1200000010430813
_WALLF12=                      0.1200000010430813
_CPUTRANS=                      0.1200000010430813
_SYSTRANS=                      0.1200000010430813
_WALLTRANS=                      0.1200000010430813
_DALTON=                      0.1200000010430813
_DARW=                      0.1200000010430813
_DECAY=                      0.1200000010430813
_DELE_CFIT=                      0.1200000010430813
_DELG_CFIT=                      0.1200000010430813
_DELTA=                      0.1200000010430813
_DFTEXFAC=                      0.1200000010430813
_DFTFAC=                      0.1200000010430813
_DFTFUN=                      0.1200000010430813
_DFTFUNS=                      0.1200000010430813
_DMEX=                      0.1200000010430813
_DMEY=                      0.1200000010430813
_DMEZ=                      0.1200000010430813
_DMNX=                      0.1200000010430813
_DMNY=                      0.1200000010430813
_DMNZ=                      0.1200000010430813
_DMSCF=                      0.1200000010430813
_DMSCF_Efield=                      0.1200000010430813
_DMSCF_I=                      0.1200000010430813
_DMSCF_J=                      0.1200000010430813
_DMSCF_K=                      0.1200000010430813
_DMSCF_N1=                      0.1200000010430813
_DMSCF_N2=                      0.1200000010430813
_DMSCF_NUC=                      0.1200000010430813
_DMSCF_T=                      0.1200000010430813
_DMSCF_V=                      0.1200000010430813
_DMX=                      0.0000097838213168
_DMY=                      0.0000000000000000
_DMZ=                      0.0000096934276444
_DMZCOR=                      0.0000096934276444
_DM_RHO1=                      0.0000096934276444
_DM_RVAL=                      0.0000096934276444
_DUMMYATOMS=                      0.0000096934276444
_FREQUENCIES=                      0.0000096934276444
_EDISP=                      0.0000096934276444
_EEDISP=                      0.0000096934276444
_EINTRA=                      0.0000096934276444
_EIONIC=                      0.0000096934276444
_EMP2=                      0.0000096934276444
_EMP2_SING=                      0.0000096934276444
_EMP2_TRIP=                      0.0000096934276444
_EMP2_SINGLES=                      0.0000096934276444
_EMP2_SINGLES_D=                      0.0000096934276444
_EMP2_SCS=                      0.0000096934276444
_EMP2_STRONG=                      0.0000096934276444
_EMP2_CLOSE=                      0.0000096934276444
_EMP2_WEAK=                      0.0000096934276444
_EMP2_DIST=                      0.0000096934276444
_ECSING=                      0.0000096934276444
_ECTRIP=                      0.0000096934276444
_ECSINGLES=                      0.0000096934276444
_EF12=                      0.0000096934276444
_EF12_SING=                      0.0000096934276444
_EF12_TRIP=                      0.0000096934276444
_ECSING_F12=                      0.0000096934276444
_ECTRIP_F12=                      0.0000096934276444
_EF12_RHFRELAX=                      0.0000096934276444
_EF12_RHFRELAX_C=                      0.0000096934276444
_EF12_CONVSUPPRS=                      0.0000096934276444
_EF12_CONVSUPPRT=                      0.0000096934276444
_EF12_SINGLES=                      0.0000096934276444
_EF12_SINGLES_C=                      0.0000096934276444
_EF12_SCS=                      0.0000096934276444
_EF12_STRONG=                      0.0000096934276444
_EF12_CLOSE=                      0.0000096934276444
_EF12_WEAK=                      0.0000096934276444
_EF12_DIST=                      0.0000096934276444
_EF12S=                      0.0000096934276444
_EF12S_SING=                      0.0000096934276444
_EF12S_TRIP=                      0.0000096934276444
_EF12S_SCS=                      0.0000096934276444
_EF12S_STRONG=                      0.0000096934276444
_EF12S_CLOSE=                      0.0000096934276444
_EF12S_WEAK=                      0.0000096934276444
_EF12S_DIST=                      0.0000096934276444
_EF12D=                      0.0000096934276444
_EF12D_SING=                      0.0000096934276444
_EF12D_TRIP=                      0.0000096934276444
_EF12D_SCS=                      0.0000096934276444
_EF12D_STRONG=                      0.0000096934276444
_EF12D_CLOSE=                      0.0000096934276444
_EF12D_WEAK=                      0.0000096934276444
_EF12D_DIST=                      0.0000096934276444
_EF12F=                      0.0000096934276444
_EF12F_SING=                      0.0000096934276444
_EF12F_TRIP=                      0.0000096934276444
_EF12F_SCS=                      0.0000096934276444
_EF12F_STRONG=                      0.0000096934276444
_EF12F_CLOSE=                      0.0000096934276444
_EF12F_WEAK=                      0.0000096934276444
_EF12F_DIST=                      0.0000096934276444
_EMP2R12_2AD=                      0.0000096934276444
_EMP2R12_2A=                      0.0000096934276444
_EMP2R12_2AP=                      0.0000096934276444
_EMP2R12_2SAD=                      0.0000096934276444
_EMP2R12_2SA=                      0.0000096934276444
_EMP2R12_2SAP=                      0.0000096934276444
_EMP2R12_2B=                      0.0000096934276444
_EMP2_R12=                      0.0000096934276444
_EMP2_R12_A=                      0.0000096934276444
_EMP2_R12_AP=                      0.0000096934276444
_EMP2_R12_AD=                      0.0000096934276444
_EMP2_R12_2A=                      0.0000096934276444
_EMP2_R12_2SA=                      0.0000096934276444
_EMP2_R12_2SAP=                      0.0000096934276444
_EMP2_R12_2SAD=                      0.0000096934276444
_EMP2_R12_2AP=                      0.0000096934276444
_EMP2_R12_DIAG=                      0.0000096934276444
_EMP2_R12_STRONG=                      0.0000096934276444
_EMP2_R12_CLOSE=                      0.0000096934276444
_EMP2_R12_WEAK=                      0.0000096934276444
_EMP2_R12_DIST=                      0.0000096934276444
_EMP2_R12_SING=                      0.0000096934276444
_EMP2_R12_TRIP=                      0.0000096934276444
_EMP2_R12_SCS=                      0.0000096934276444
_EMP2R=                      0.0000096934276444
_EMP3=                      0.0000096934276444
_EMP3R=                      0.0000096934276444
_EMP4=                      0.0000096934276444
_ENERGC=                      0.0000096934276444
_ENERGCL=                      0.0000096934276444
_ENERG_CC=                      0.0000096934276444
_ENERG_CV=                      0.0000096934276444
_ENERG_VV=                      0.0000096934276444
_ENERGD=                      0.0000096934276444
_ENERGD0=                      0.0000096934276444
_ENERGD1=                      0.0000096934276444
_ENERGD2=                      0.0000096934276444
_ENERGP=                      0.0000096934276444
_ENERGP0=                      0.0000096934276444
_ENERGP1=                      0.0000096934276444
_ENERGP2=                      0.0000096934276444
_ENERGR=                      0.0000096934276444
_ENERGRR=                      0.0000096934276444
_ENERGS=                      0.0000096934276444
_ENERGT=                      0.0000096934276444
_ENERGU=                      0.0000096934276444
_ENERGW=                      0.0000096934276444
_ENERGY=                   -841.0626142540354522
_ENERGY_MP=                   -841.0626142540354522
_ECBS=                   -841.0626142540354522
_ECBSD=                   -841.0626142540354522
_ENUC=                     44.1015984770772889
_EPDIST=                     44.1015984770772889
_EPDIST_R12=                     44.1015984770772889
_EPSUM=                     44.1015984770772889
_EPSUM_R12=                     44.1015984770772889
_EPS1=                   -181.5052012435074573
_EPS2=                    -17.8864448546201871
_EPS3=                    -17.8864448546201871
_EPS4=                    -17.8864448546201871
_EPS5=                    -17.8864448546201871
_EPS6=                    -17.8864448546201871
_EPS7=                    -17.8864448546201871
_EPS8=                    -17.8864448546201871
_EREL=                    -17.8864448546201871
_FLOPBLAS1=                    -17.8864448546201871
_FLOPBLAS2=                    -17.8864448546201871
_FLOPBLAS3=                    -17.8864448546201871
_FLOPDGM=                    -17.8864448546201871
_FLOPDGV=                    -17.8864448546201871
_FLOPMXM=                    -17.8864448546201871
_FLOPMXV=                    -17.8864448546201871
_FREQSTEP=                    -17.8864448546201871
!RS2GRSTATE=                    -17.8864448546201871
!RS2GRSYM=                    -17.8864448546201871
_GRADENERG=                    -17.8864448546201871
_GRADEXFAC=                   9999.0000000000000000
_GRADMETHOD=                      1.0000000000000000
_GRADRECORD=                      1.0000000000000000
_GRADX=                      1.0000000000000000
_GRADY=                      1.0000000000000000
_GRADZ=                      1.0000000000000000
_GRADVAR=                      1.0000000000000000
_GRID=                      1.0000000000000000
_GRID_FREEZE=                      1.0000000000000000
!GRID_FREEZE=                     -1.0000000000000000
_GRID_WEIGHT_CUT=                     -1.0000000000000000
_GRID_BLOCKSIZE=                     -1.0000000000000000
_GRID_SPARSITY=                     -1.0000000000000000
_GRID_RMAX=                     -1.0000000000000000
_GTOTAL=                     -1.0000000000000000
_HDIA=                     -1.0000000000000000
_HDIACI=                     -1.0000000000000000
_HEAT=                     -1.0000000000000000
_HTOTAL=                     -1.0000000000000000
_INCR_CORR=                     -1.0000000000000000
_INCR_COUNT=                     -1.0000000000000000
_INCR_READY=                     -1.0000000000000000
_ISCHI=                     -1.0000000000000000
_ITERATIONS=                      7.0000000000000000
_KFIT=                      7.0000000000000000
_LASTNELEC=                     26.0000000000000000
_LASTSPIN=                      0.0000000000000000
_LASTSYM=                      1.0000000000000000
_LL=                      1.0000000000000000
_MASSV=                      1.0000000000000000
_MIN_ITER=                      1.0000000000000000
_MIXANG=                      1.0000000000000000
_MIXANGCI=                      1.0000000000000000
_MPP_PROG=                      1.0000000000000000
_MSENERGY=                      1.0000000000000000
_NACME=                      1.0000000000000000
_NBAS_CFIT=                      1.0000000000000000
_NEWREC=                      1.0000000000000000
_NGRID=                      1.0000000000000000
_NPROC_MPP=                     12.0000000000000000
_NPROC_SMP=                      1.0000000000000000
_NUMSTEP=                      0.0000000000000000
_OPNUC=                      0.0000000000000000
_OPTCONVMX=                      0.0000000000000000
_OPTCONVRMS=                      0.0000000000000000
_OPTGRAD=                      0.0000000000000000
_OPTGRADMX=                      0.0000000000000000
_OPTGRADRMS=                      0.0000000000000000
_OPTRMSMAX=                      0.0000000000000000
_OPTSTEP=                      0.0000000000000000
_ORBITAL=                   2100.1999999999998181
_PAOINT_CFIT=                   2100.1999999999998181
_PENALTY=                   2100.1999999999998181
_PH1INT_CFIT=                   2100.1999999999998181
_PH1VEC_CFIT=                   2100.1999999999998181
_PH2INT_CFIT=                   2100.1999999999998181
_PHASE=                   2100.1999999999998181
_PI=                      3.1415926535897931
_PMOINT_CFIT=                      3.1415926535897931
_PMOVEC_CFIT=                      3.1415926535897931
_POISSON_ECORR=                      3.1415926535897931
_POISSON_ERROR=                      3.1415926535897931
_POLXX=                      3.1415926535897931
_POLXY=                      3.1415926535897931
_POLXZ=                      3.1415926535897931
_POLYY=                      3.1415926535897931
_POLYZ=                      3.1415926535897931
_POLZZ=                      3.1415926535897931
_POLYX=                      3.1415926535897931
_POLZX=                      3.1415926535897931
_POLZY=                      3.1415926535897931
_POVINT_CFIT=                      3.1415926535897931
_ROOT=                      3.1415926535897931
_RPDIST=                      3.1415926535897931
_RPMIN=                      3.1415926535897931
_RPMAX=                      3.1415926535897931
_EPCON=                      3.1415926535897931
_EPDIAG=                      3.1415926535897931
!MCACT=                      3.1415926535897931
!MCCLOSED=                      3.1415926535897931
!MCFREEZE=                      3.1415926535897931
!MCMS2=                      3.1415926535897931
!MCNEL=                      3.1415926535897931
!MCNSTSYM=                      3.1415926535897931
!MCSTATE=                      3.1415926535897931
!MCSYM=                      3.1415926535897931
!MCWEIGHT=                      3.1415926535897931
_SEIG_MIN=                      0.0973582126111414
_SEWPROP=TRUE
_SMAT=TRUE
_SMATCI=TRUE
_SSQUARED=TRUE
_STATUS=                      1.0000000000000000
_SYSBLAS1=                      1.0000000000000000
_SYSBLAS2=                      1.0000000000000000
_SYSBLAS3=                      1.0000000000000000
_SYSTEM_RC=                      1.0000000000000000
_SYSTOT=                      0.0200000000000000
_T1DIAG=                      0.0200000000000000
_D1DIAG=                      0.0200000000000000
_TASK=                      0.0200000000000000
_TROV=                      0.0200000000000000
_HMAT=                      0.0200000000000000
_UMAT=                      0.0200000000000000
_UMATCI=                      0.0200000000000000
_VERSION=                2009001.0000000000000000
_WALLBLAS1=                2009001.0000000000000000
_WALLBLAS2=                2009001.0000000000000000
_WALLBLAS3=                2009001.0000000000000000
_WALLTOT=                      3.2700000000000000
_ZPE=                      3.2700000000000000
!DFBASIS_COUL=                      3.2700000000000000
!DFBASIS_EXCH=                      3.2700000000000000
!DFBASIS_MP2=                      3.2700000000000000
!DFBASIS_F12K=                      3.2700000000000000
!DFBASIS_CCSD=                      3.2700000000000000
!RIBASIS_MP2=                      3.2700000000000000
!RIBASIS_EXCH=                      3.2700000000000000
_MODULE_AIMS=                      3.2700000000000000
_MODULE_CCSAPT=                      3.2700000000000000
_MODULE_DEVELOP=                      3.2700000000000000
_MODULE_MASTER=                      3.2700000000000000
_DATE= 29-Nov-19
_LASTORB=RHF
_MACHINE=Linux-2.6.27.54-0.2-default/g4noden2(x86_64) 64 bit mpp version
_METHODC=
_METHODT=
_OUTPUT=/scratch/1591111.1.iqtc04.q/molpro.xml
_PGROUP=Cs
_SEMI=
_TIME=12:54:51
_ANSATZ=
_LIBMOL=/aplic/molpro/2009.1_patch20_prebuilt_mpp/lib/
_VDIAG=
_UDIAG=
!AOINTADDSC=
_TRANSFORM_FORCE=
_SOLVE_ITER=
_VSCF_FREQ=
_VCI_FREQ=
!SURFREC=                      0.0000000000000000
!POLYREC=                      0.0000000000000000
!DIPREC=                      0.0000000000000000
!VSCFREC=                      0.0000000000000000
!VCIREC=                      0.0000000000000000
!PVCIREC=                      0.0000000000000000
!VMP2REC=                      0.0000000000000000
!VMCSCFREC=                      0.0000000000000000
!GAREC=                      0.0000000000000000
!SCFORB=                  21002.0000000000000000
!MCORB=                  21002.0000000000000000
!CIOCC=                  21002.0000000000000000
!CICORE=                  21002.0000000000000000
!CICLOS=                  21002.0000000000000000
!UNO_OCC=                  21002.0000000000000000
!UNO_CLOSED=                  21002.0000000000000000
!CINSTSYM=                  21002.0000000000000000
!CIISTSYM=                  21002.0000000000000000
!CIISTMS2=                  21002.0000000000000000
!CIISTNEL=                  21002.0000000000000000
!CIMS2=                  21002.0000000000000000
!NEWMOL=                     -1.0000000000000000
!NEWSYM=                     -1.0000000000000000
!NEWORIENT=                     -1.0000000000000000
_SLFILES=slscratch
_NGSSTO=                      9.0000000000000000
_SIN=SIN
_COS=COS
_TAN=TAN
_ACOS=ACOS
_ASIN=ASIN
_ATAN=ATAN
_COSH=COSH
_SINH=SINH
_TANH=TANH
_ABS=ABS
_MOD=MOD
_ERF=ERF
_REFC=REFC
_ERFC=ERFC
_HYPOT=HYPOT
_J0=J0
_J1=J1
_JN=JN
_GAMMA=GAMMA
_LGAMMA=LGAMMA
_Y0=Y0
_Y1=Y1
_YN=YN
_EXP=EXP
_LOG=LOG
_LOG10=LOG10
_SQRT=SQRT
_INT=INT
_NINT=NINT
_MAX=MAX
_MIN=MIN
_COSMO=                      0.0000000000000000
_COSMOIT=                      0.0000000000000000
_COSMOES=                      0.0000000000000000
_COSMOEDS=                      0.0000000000000000
_COSMOEC=                      0.0000000000000000
_COSMOEDCORR=                      0.0000000000000000
_FEPSI=                      1.0000000000000000
_SL_IsMM=                      0.0000000000000000
_SL_NSYM=                      0.0000000000000000
_SL_System_BitSw=                      0.0000000000000000
_SL_Unique_atoms=                      0.0000000000000000
_SL_Last_energy=                      0.0000000000000000
_SL_GRAD=                      0.0000000000000000
_SL_MAXUPD_Hess=                      5.0000000000000000
_SL_N_PRINT_COD=                      5.0000000000000000
_SL_PRINT_CODES=                      0.0000000000000000
_SL_BasType=                      0.0000000000000000
_SL_Energy_Pred=                      0.0000000000000000
_SL_New_Coords=                      0.0000000000000000
_SL_Total_Nuclea=                      0.0000000000000000
_SL_Highest_Mltp=                      0.0000000000000000
_SL_Ref_Geom=                      0.0000000000000000
_OCC=                      0.0000000000000000
_CORE=                      0.0000000000000000
_CLOSED=                      0.0000000000000000
_SCFOCC=                      0.0000000000000000
_SCFCLOSED=                      0.0000000000000000
_SCFCORE=                      0.0000000000000000
_MCOCC=                      0.0000000000000000
_MCCLOSED=                      0.0000000000000000
_MCFROZEN=                      0.0000000000000000
_MCCORE=                      0.0000000000000000
_CIOCC=                      0.0000000000000000
_CICLOSED=                      0.0000000000000000
_CICORE=                      0.0000000000000000
_CCOCC=                      0.0000000000000000
_CCCLOSED=                      0.0000000000000000
_CCCORE=                      0.0000000000000000
_SRXC=                      0.0000000000000000
_SRC=                      0.0000000000000000
_SRX=                      0.0000000000000000
_SRH=                      0.0000000000000000
_E_EXCHANGE=                      0.0000000000000000
!LATTICE=                     -1.0000000000000000
!NEWLATTICE=                      0.0000000000000000
!LATGRAD_VAR=FALSE
!SEW_LATTICE=                      1.0000000000000000
_LATGRADX=                      1.0000000000000000
_LATGRADY=                      1.0000000000000000
_LATGRADZ=                      1.0000000000000000
!SCALTABINIT=                      1.0000000000000000
!LOCAL=                      0.0000000000000000
!SAVEOCC=                      0.0000000000000000
!SAVEDOM=                     -1.0000000000000000
!RESTDOM=                     -1.0000000000000000
!SAVEDOM_HF=                     -1.0000000000000000
!RESTDOM_HF=                     -1.0000000000000000
!HESSREC=                      0.0000000000000000
!FREQREC=                      0.0000000000000000
!NMODREC=                      0.0000000000000000
!GTASKS=                      0.0000000000000000
!HTASKS=                      0.0000000000000000
!THRCHG=                      0.1000000000000000
!DEBUG=                     -1.0000000000000000
!CFIT_CPHF=                      0.0000000000000000
!RDOMAUX_CPHF=                      3.0000000000000000
!THRAO_CPHF=                      0.0000000001000000
!THRMO_CPHF=                      0.0000000010000000
!THROV_CPHF=                      0.0000000000010000
!THRSW_CPHF=                      0.0000000001000000
!THRPROD_CPHF=                      0.0000000010000000
!THRAOPR_CPHF=                      0.0000000000010000
!CFIT_SCFGRD=                      0.0000000000000000
!RDOMAUX_SCFGRD=                      5.0000000000000000
!THRAO_SCFGRD=                      0.0000000001000000
!THRMO_SCFGRD=                      0.0000000010000000
!THROV_SCFGRD=                      0.0000000000010000
!THRSW_SCFGRD=                      0.0000000001000000
!THRPROD_SCFGRD=                      0.0000000010000000
!THRAOPR_SCFGRD=                      0.0000000000010000
!LOCFIT_SCF=                      0.0000000000000000
!LOCFIT_MP2=                     -1.0000000000000000
_RIDOM=                      0.0000000000000000
_FCI_METHOD=                      0.0000000000000000
!CC2_METHOD=                      0.0000000000000000
_BASIS2006=FALSE
_SVDDEL=                     -1.0000000000000000
_SVDDELA=                     -1.0000000000000000
_SVDDELP=                     -1.0000000000000000
_SVDDELF=                     -1.0000000000000000
_SVDDELS=                     -1.0000000000000000
_SVDDEL_ABS=                     -1.0000000000000000
_SVDDELA_ABS=                     -1.0000000000000000
_SVDDELP_ABS=                     -1.0000000000000000
_SVDDELF_ABS=                     -1.0000000000000000
_SVDDELS_ABS=                     -1.0000000000000000
_MAXBASIS=                      0.0000000000000000
!OPT_CONICAL=                      0.0000000000000000
!CLEARSP_JGRID=                      0.0000000000000000
GX1=                      0.0000000000000000
GY1=                      0.0000000000000000
GZ1=                      0.0000000000000000
GX2=                      0.0000000000000000
GY2=                      0.0000000000000000
GZ2=                      1.1000000000000001
GX3=                      1.0370900000000001
GY3=                      0.0000000000000000
GZ3=                     -0.3666700000000000
GX4=                     -0.5185500000000000
GY4=                      0.8981500000000000
GZ4=                     -0.3666700000000000
GX5=                     -0.5185500000000000
GY5=                     -0.8981500000000000
GZ5=                     -0.3666700000000000
[Atoms] Angs
TI    1   22         0.0000000000        0.0000000000        0.0000000000
H     2    1         0.0000000000        0.0000000000        1.1000000000
H     3    1         1.0370900000        0.0000000000       -0.3666700000
H     4    1        -0.5185500000        0.8981500000       -0.3666700000