test hf
SP        RHF                                                         STO-3G
Number of atoms                            I                5
Info1-9                                    I   N=           9
          15          14           0           0           0         111
           1           1           2
Charge                                     I                0
Multiplicity                               I                1
Number of electrons                        I               26
Number of alpha electrons                  I               13
Number of beta electrons                   I               13
Number of basis functions                  I               22
Number of independent functions            I               22
Number of point charges in /Mol/           I                0
Number of translation vectors              I                0
Atomic numbers                             I   N=           5
          22           1           1           1           1
Nuclear charges                            R   N=           5
  2.20000000E+01  1.00000000E+00  1.00000000E+00  1.00000000E+00  1.00000000E+00
Current cartesian coordinates              R   N=          15
  0.00000000E+00  0.00000000E+00  0.00000000E+00  0.00000000E+00  0.00000000E+00
  2.07869875E+00  1.95981608E+00  0.00000000E+00 -6.92900212E-01 -9.79908038E-01
  1.69724997E+00 -6.92900212E-01 -9.79908038E-01 -1.69724997E+00 -6.92900212E-01
Force Field                                I                0
Int Atom Types                             I   N=           5
           0           0           0           0           0
MM charges                                 R   N=           5
  0.00000000E+00  0.00000000E+00  0.00000000E+00  0.00000000E+00  0.00000000E+00
Integer atomic weights                     I   N=           5
          48           1           1           1           1
Real atomic weights                        R   N=           5
  4.79479467E+01  1.00782504E+00  1.00782504E+00  1.00782504E+00  1.00782504E+00
Atom fragment info                         I   N=           5
           0           0           0           0           0
Atom residue num                           I   N=           5
           0           0           0           0           0
Nuclear spins                              I   N=           5
           0           1           1           1           1
Nuclear ZEff                               R   N=           5
 -2.39800000E+01 -1.00000000E+00 -1.00000000E+00 -1.00000000E+00 -1.00000000E+00
Nuclear ZNuc                               R   N=           5
  2.20000000E+01  1.00000000E+00  1.00000000E+00  1.00000000E+00  1.00000000E+00
Nuclear QMom                               R   N=           5
  0.00000000E+00  0.00000000E+00  0.00000000E+00  0.00000000E+00  0.00000000E+00
Nuclear GFac                               R   N=           5
  0.00000000E+00  2.79284600E+00  2.79284600E+00  2.79284600E+00  2.79284600E+00
MicOpt                                     I   N=           5
          -1          -1          -1          -1          -1
Number of contracted shells                I                9
Number of primitive shells                 I               27
Pure/Cartesian d shells                    I                0
Pure/Cartesian f shells                    I                0
Highest angular momentum                   I                2
Largest degree of contraction              I                3
Shell types                                I   N=           9
           0          -1          -1          -1          -2           0
           0           0           0
Number of primitives per shell             I   N=           9
           3           3           3           3           3           3
           3           3           3
Shell to atom map                          I   N=           9
           1           1           1           1           1           2
           3           4           5
Primitive exponents                        R   N=          27
  1.03357125E+03  1.88266293E+02  5.09522060E+01  7.52512046E+01  1.74867616E+01
  5.68723761E+00  5.39553547E+00  1.64581030E+00  6.35004777E-01  7.12264025E-01
  2.62870220E-01  1.16086261E-01  1.64598119E+00  5.02076728E-01  1.93716810E-01
  3.42525091E+00  6.23913730E-01  1.68855404E-01  3.42525091E+00  6.23913730E-01
  1.68855404E-01  3.42525091E+00  6.23913730E-01  1.68855404E-01  3.42525091E+00
  6.23913730E-01  1.68855404E-01
Contraction coefficients                   R   N=          27
  1.54328967E-01  5.35328142E-01  4.44634542E-01 -9.99672292E-02  3.99512826E-01
  7.00115469E-01 -2.27763502E-01  2.17543604E-01  9.16676961E-01 -3.08844121E-01
  1.96064117E-02  1.13103444E+00  2.19767951E-01  6.55547363E-01  2.86573259E-01
  1.54328967E-01  5.35328142E-01  4.44634542E-01  1.54328967E-01  5.35328142E-01
  4.44634542E-01  1.54328967E-01  5.35328142E-01  4.44634542E-01  1.54328967E-01
  5.35328142E-01  4.44634542E-01
P(S=P) Contraction coefficients            R   N=          27
  0.00000000E+00  0.00000000E+00  0.00000000E+00  1.55916275E-01  6.07683719E-01
  3.91957393E-01  4.95151116E-03  5.77766469E-01  4.84646037E-01 -1.21546860E-01
  5.71522760E-01  5.49894947E-01  0.00000000E+00  0.00000000E+00  0.00000000E+00
  0.00000000E+00  0.00000000E+00  0.00000000E+00  0.00000000E+00  0.00000000E+00
  0.00000000E+00  0.00000000E+00  0.00000000E+00  0.00000000E+00  0.00000000E+00
  0.00000000E+00  0.00000000E+00
Coordinates of each shell                  R   N=          27
  0.00000000E+00  0.00000000E+00  0.00000000E+00  0.00000000E+00  0.00000000E+00
  0.00000000E+00  0.00000000E+00  0.00000000E+00  0.00000000E+00  0.00000000E+00
  0.00000000E+00  0.00000000E+00  0.00000000E+00  0.00000000E+00  0.00000000E+00
  0.00000000E+00  0.00000000E+00  2.07869875E+00  1.95981608E+00  0.00000000E+00
 -6.92900212E-01 -9.79908038E-01  1.69724997E+00 -6.92900212E-01 -9.79908038E-01
 -1.69724997E+00 -6.92900212E-01
Constraint Structure                       R   N=          15
  0.00000000E+00  0.00000000E+00  0.00000000E+00  0.00000000E+00  0.00000000E+00
  2.07869875E+00  1.95981608E+00  0.00000000E+00 -6.92900212E-01 -9.79908038E-01
  1.69724997E+00 -6.92900212E-01 -9.79908038E-01 -1.69724997E+00 -6.92900212E-01
Num ILSW                                   I              100
ILSW                                       I   N=         100
           0           0           0           0           2           0
           0           0           0           0           0          -1
           0           0           0           0           0           0
           0           0           0           0           0           0
           1           1           0           0           0           0
           0           0      100000           0          -1           0
           0           0           0           0           0           0
           0           0           0           1           0           0
           0           0           1           0           0           0
           0           0           4          41           0           0
           0           0           0           0           0           0
           0           0           0           5           0           0
           0           0           0           0           0           0
           0           0           0           0           0           0
           0           0           0           0           0           0
           0           0           0           0           0           0
           0           0           0           0
Num RLSW                                   I               41
RLSW                                       R   N=          41
  1.00000000E+00  1.00000000E+00  1.00000000E+00  1.00000000E+00  1.00000000E+00
  0.00000000E+00  0.00000000E+00  1.00000000E+00  0.00000000E+00  0.00000000E+00
  0.00000000E+00  0.00000000E+00  1.00000000E+00  0.00000000E+00  0.00000000E+00
  0.00000000E+00  0.00000000E+00  1.00000000E+00  0.00000000E+00  0.00000000E+00
  0.00000000E+00  0.00000000E+00  1.00000000E+00  0.00000000E+00  0.00000000E+00
  0.00000000E+00  0.00000000E+00  1.00000000E+00  0.00000000E+00  0.00000000E+00
  0.00000000E+00  0.00000000E+00  1.00000000E+00  0.00000000E+00  0.00000000E+00
  0.00000000E+00  0.00000000E+00  0.00000000E+00  1.00000000E+00  1.00000000E+00
  0.00000000E+00
MxBond                                     I                4
NBond                                      I   N=           5
           4           1           1           1           1
IBond                                      I   N=          20
           2           3           4           5           1           0
           0           0           1           0           0           0
           1           0           0           0           1           0
           0           0
RBond                                      R   N=          20
  3.00000000E+00  3.00000000E+00  3.00000000E+00  3.00000000E+00  3.00000000E+00
  0.00000000E+00  0.00000000E+00  0.00000000E+00  3.00000000E+00  0.00000000E+00
  0.00000000E+00  0.00000000E+00  3.00000000E+00  0.00000000E+00  0.00000000E+00
  0.00000000E+00  3.00000000E+00  0.00000000E+00  0.00000000E+00  0.00000000E+00
Virial Ratio                               R      1.998959000888250E+00
SCF Energy                                 R     -8.410625977827191E+02
Total Energy                               R     -8.410625977827191E+02
RMS Density                                R      6.260837069760248E-09
External E-field                           R   N=          35
  0.00000000E+00  0.00000000E+00  0.00000000E+00  0.00000000E+00  0.00000000E+00
  0.00000000E+00  0.00000000E+00  0.00000000E+00  0.00000000E+00  0.00000000E+00
  0.00000000E+00  0.00000000E+00  0.00000000E+00  0.00000000E+00  0.00000000E+00
  0.00000000E+00  0.00000000E+00  0.00000000E+00  0.00000000E+00  0.00000000E+00
  0.00000000E+00  0.00000000E+00  0.00000000E+00  0.00000000E+00  0.00000000E+00
  0.00000000E+00  0.00000000E+00  0.00000000E+00  0.00000000E+00  0.00000000E+00
  0.00000000E+00  0.00000000E+00  0.00000000E+00  0.00000000E+00  0.00000000E+00
IOpCl                                      I                0
IROHF                                      I                0
Alpha Orbital Energies                     R   N=          22
 -1.81505201E+02 -2.13057616E+01 -1.78864444E+01 -1.78864444E+01 -1.78864444E+01
 -3.00275543E+00 -1.95426205E+00 -1.95426202E+00 -1.95426198E+00 -4.33260404E-01
 -4.19096600E-01 -4.19096549E-01 -4.19096506E-01  2.68041165E-01  2.68041168E-01
  2.68041174E-01  2.85761501E-01  2.85761506E-01  8.55539256E-01  1.32749232E+00
  1.32749248E+00  1.32749264E+00
Alpha MO coefficients                      R   N=         484
  9.92427209E-01  2.01228143E-02 -2.12639790E-11 -5.71081079E-17  8.42380302E-12
 -3.34344830E-03  5.68294510E-11 -3.82815242E-17  3.64964935E-12  6.58980264E-04
  5.35473151E-10 -8.48611393E-16  1.24037524E-10 -5.45694787E-11 -2.12679480E-10
  3.98231401E-16  2.46051157E-10  2.94514412E-16  1.97152672E-04  1.97152071E-04
  1.97153022E-04  1.97153022E-04 -4.10190605E-01  1.05231929E+00 -3.17580975E-09
 -1.52113528E-16 -6.35197105E-14  6.96857530E-02 -1.17139166E-09 -1.11413348E-16
 -7.50423134E-11 -1.32928860E-02 -7.94230826E-09  1.30854266E-15 -1.49178377E-09
  7.58240244E-10  3.22695017E-09  2.18927252E-16 -3.82672970E-09 -3.35633617E-16
 -2.51926121E-03 -2.51925197E-03 -2.51926629E-03 -2.51926629E-03 -2.83094642E-15
  7.08598168E-15  1.94145038E-06  9.88475095E-01  9.12918193E-07 -1.44149615E-15
  7.04887658E-08  3.58888341E-02  3.31455696E-08 -7.44775061E-15 -1.20826912E-08
 -6.15180991E-03 -5.68157468E-09  1.27310254E-09 -1.56313418E-09 -7.95859380E-04
  2.21060233E-09 -1.12551427E-03 -2.27040078E-09 -3.79537909E-09 -2.00719693E-03
  2.00720299E-03 -1.19568425E-09  2.99101613E-09  7.94977260E-01 -2.10394791E-06
  5.87447164E-01 -9.90694006E-10  2.88634551E-02 -7.63886092E-08  2.13286039E-02
 -3.01148619E-09 -4.94757110E-03  1.30939939E-08 -3.65599669E-03  8.19218912E-04
 -6.40066082E-04  1.69396901E-09  9.05188751E-04  2.39563345E-09 -1.46096321E-03
 -1.37702067E-03  1.41899921E-03  1.41899066E-03  8.63009607E-10 -2.21915449E-09
 -5.87447164E-01  4.19586004E-07  7.94977260E-01  4.75654341E-10 -2.13286033E-02
  1.52340232E-08  2.88634551E-02  1.07598915E-09  3.65600206E-03 -2.61130857E-09
 -4.94757031E-03  1.10862597E-03  4.72974683E-04 -3.37825279E-10 -6.68886694E-04
 -4.77755168E-10 -1.97708274E-03  2.03643155E-03 -2.96763355E-05 -2.96746315E-05
  1.35352910E-01 -4.18998576E-01  1.72908558E-08 -7.03628737E-16  5.94424408E-09
  1.03834903E+00 -4.82401622E-08  1.65798693E-15 -1.65243168E-08 -5.00882523E-02
 -3.95259598E-09  6.27561606E-17  1.25114521E-08  1.26120459E-09  6.27936107E-09
 -7.66249215E-17 -9.61222102E-09  5.08001907E-17  2.57889974E-02  2.57890043E-02
  2.57890049E-02  2.57890049E-02  6.26378048E-09 -1.69524484E-08 -1.21955168E-01
 -1.36861338E-09 -3.21832758E-01  6.81309336E-08  3.52144442E-01  3.95185825E-09
  9.29289174E-01  5.37895423E-08  5.58764334E-03  6.27047034E-11  1.47454661E-02
 -1.17496506E-02  2.57059128E-03  2.88503072E-11 -3.63537839E-03  4.07968067E-11
  1.06455920E-01  2.54791513E-03 -5.45019878E-02 -5.45019886E-02 -4.27520296E-16
  1.23344221E-15  7.08547423E-09 -3.44164772E-01 -1.22138525E-09 -3.99350488E-15
 -2.04592428E-08  9.93772664E-01  3.52673906E-09 -5.34818665E-16 -3.24636564E-10
  1.57687008E-02  5.59609618E-11 -4.45911997E-11 -1.49350047E-10  7.25438182E-03
  2.11211852E-10  1.02592253E-02  4.04009793E-10 -2.34436340E-09  9.29523419E-02
 -9.29523400E-02  6.63069431E-09 -1.88064057E-08 -3.21832766E-01 -7.05851431E-09
  1.21955170E-01  6.69841177E-08  9.29289204E-01  2.03813961E-08 -3.52144452E-01
  2.70995736E-08  1.47455165E-02  3.23403597E-10 -5.58765376E-03  4.45241510E-03
  6.78366756E-03  1.48779978E-10 -9.59355311E-03  2.10407420E-10 -4.03403677E-02
  1.13814338E-01 -3.67370138E-02 -3.67370176E-02  5.14009371E-02 -1.45553686E-01
 -8.28983508E-08 -3.34166059E-15 -2.48491942E-07  6.14414234E-01  2.83318759E-07
  1.15283710E-14  8.64232339E-07 -4.31873122E-01 -1.73650981E-07 -2.67656144E-15
 -4.79523021E-07 -1.45628761E-06  2.21481361E-07  5.92235757E-15 -4.17171847E-07
  7.89892865E-15 -3.07888444E-01 -3.07887175E-01 -3.07886540E-01 -3.07886540E-01
  1.12758280E-17 -9.43114190E-17  1.41078785E-09 -1.13359246E-01  6.00357107E-10
 -1.64209512E-16 -4.91389253E-09  3.94839801E-01 -2.09109446E-09 -3.09306519E-15
  2.57924175E-09 -2.07246144E-01  1.09758780E-09  2.88295983E-09 -3.91138384E-09
  3.14286588E-01  5.53152650E-09  4.44467989E-01  2.67299919E-09  5.03108070E-09
 -4.12097925E-01  4.12097918E-01  2.88493168E-08 -7.88068663E-08  1.11988445E-01
  1.30064438E-09 -1.75758005E-02  3.66962606E-07 -3.90065183E-01 -4.53025396E-09
  6.12179920E-02 -1.93059580E-07  2.04740114E-01  2.37787024E-09 -3.21325322E-02
 -8.44003739E-02 -3.10485985E-01 -3.60601601E-09  4.39093087E-01 -5.09967250E-09
 -7.82537666E-02  4.96179835E-01 -2.08963337E-01 -2.08963347E-01  1.37700103E-07
 -3.91809883E-07  1.75758160E-02  8.11832313E-10  1.11988483E-01  1.63596536E-06
 -6.12180482E-02 -2.82768043E-09 -3.90065320E-01 -1.24070994E-06  3.21325275E-02
  1.48421246E-09  2.04740178E-01  5.37777187E-01 -4.87286883E-02 -2.25079137E-09
  6.89125847E-02 -3.18309993E-09  4.98610704E-01 -9.24264217E-02 -2.03093716E-01
 -2.03093722E-01 -1.41090151E-15  4.71835442E-15  2.08068137E-08  1.27886472E-01
  1.09806517E-08 -1.23670657E-14 -7.41553849E-08 -4.55786779E-01 -3.91349903E-08
  3.78943647E-14  1.52640307E-07  9.38184532E-01  8.05548685E-08 -4.67794865E-08
  5.11766591E-08  3.14551345E-01 -7.23747878E-08  4.44841877E-01 -3.25017757E-09
 -4.72301816E-09 -3.09070035E-02  3.09070115E-02 -7.38996842E-09  2.46954746E-08
  1.16580282E-01 -2.34814317E-08  5.25735860E-02 -6.48345608E-08 -4.15491570E-01
  8.36877112E-08 -1.87372010E-01  1.96764538E-07  8.55241463E-01 -1.72261499E-07
  3.85683693E-01 -2.23972628E-01  2.86742136E-01 -5.77550704E-08 -4.05514898E-01
 -8.16782397E-08 -1.55613233E-02 -2.73461138E-02  2.14536876E-02  2.14536763E-02
 -1.14246892E-08  4.54105156E-08 -5.25735951E-02 -1.45628171E-09  1.16580272E-01
 -5.45101053E-08  1.87372042E-01  5.19018112E-09 -4.15491532E-01  5.68411949E-07
 -3.85683691E-01 -1.06833919E-08  8.55241389E-01 -4.96652286E-01 -1.29310828E-01
 -3.58170536E-09  1.82872727E-01 -5.06567699E-09 -3.45067957E-02  2.61733875E-02
  4.16644269E-03  4.16644199E-03  5.51163693E-09 -2.14191403E-08  3.63067523E-08
  1.43526605E-15  4.13599138E-08  2.94764919E-08 -1.31856171E-07 -5.05011733E-15
 -1.49082300E-07 -2.57740877E-07  3.06991791E-07  1.50559956E-14  3.10157940E-07
 -7.40878580E-08  8.16496396E-01 -2.15667584E-08  5.77350531E-01  1.52500187E-08
  5.92737977E-08  3.42025198E-08  6.63977772E-08  6.63977848E-08 -6.72871755E-17
 -2.50514181E-16 -1.40263056E-14 -3.70972670E-08 -3.66282407E-14  2.62894903E-15
  5.04918550E-14  1.33357537E-07  1.32053881E-13  5.30566934E-15 -1.10286967E-13
 -2.92226962E-07 -2.74032850E-13  1.61793514E-13  2.15667276E-08  8.16496260E-01
  1.52500618E-08 -5.77350724E-01  6.13612176E-15  5.14807345E-15  1.38315886E-08
 -1.38316139E-08 -4.20011034E-03  7.61299872E-02  3.90659911E-08 -3.41071692E-16
 -9.96026106E-09  3.64988504E-01 -1.58399458E-07  4.19612503E-16  3.43206010E-08
  2.27667740E+00  6.65034954E-08  3.14879990E-16 -5.99560024E-07  5.58783281E-07
  1.17179395E-07 -2.93840857E-15  2.64607387E-07  5.50941859E-15 -9.75356398E-01
 -9.75356370E-01 -9.75356237E-01 -9.75356237E-01  1.39890626E-08 -1.76554623E-08
  1.40251784E-02  6.64481093E-10 -5.03867315E-03  3.32534012E-07 -6.14222547E-02
 -2.91004676E-09  2.20665062E-02  3.81479940E-07 -1.63073278E+00 -7.72600567E-08
  5.85856487E-01  4.18342917E-01  6.72301047E-01  3.18519541E-08 -9.50776230E-01
  4.50454347E-08 -6.92476897E-01  2.04809992E+00 -6.77811806E-01 -6.77811955E-01
  4.45392745E-16 -5.37554342E-17  6.65108645E-10 -1.49028888E-02 -1.13982251E-10
  1.49408466E-14 -2.91279564E-09  6.52661132E-02  4.99176515E-10  2.50857280E-14
 -7.73334278E-08  1.73277711E+00  1.32529718E-08  9.46355941E-09  3.18821934E-08
 -7.14370963E-01 -4.50881837E-08 -1.01027225E+00 -1.56648946E-08  9.14013169E-08
 -1.67228852E+00  1.67228845E+00  4.62358629E-09  5.53088564E-09  5.03870653E-03
  1.17605265E-10  1.40252355E-02  1.83576378E-07 -2.20666478E-02 -5.15043784E-10
 -6.14224971E-02  5.23733368E-07 -5.85856589E-01 -1.36741265E-08 -1.63073353E+00
 -1.16445866E+00  2.41530737E-01  5.63742386E-09 -3.41575440E-01  7.97251654E-09
  1.92751102E+00  1.03695251E-02 -9.68940737E-01 -9.68940763E-01
Total SCF Density                          R   N=         253
  2.34826113E+00 -9.51750663E-01  2.60905301E+00  1.31298292E-09 -4.86306369E-09
  2.21676546E+00  1.15914143E-16 -5.56431762E-16  2.45023282E-16  2.21676545E+00
  3.46088670E-09 -1.13190165E-08  1.10355225E-09  6.95577487E-17  2.21676546E+00
  2.80444918E-01 -9.02465275E-01  1.14283447E-08  1.39456135E-15  3.25864921E-08
  2.92108167E+00 -5.59575900E-09  1.83118964E-08 -7.02610163E-01  6.00644534E-16
 -4.61228663E-09 -6.63720039E-08  2.28954127E+00  9.39996653E-17 -5.91050743E-16
 -1.95632903E-16 -7.02610132E-01 -5.32471584E-16  2.81797673E-16 -1.80273864E-15
  2.28954117E+00 -1.24809756E-08  3.98564059E-08 -4.76914480E-09  2.21510128E-16
 -7.02610190E-01 -1.24234769E-07  2.09211989E-08  1.82101262E-16  2.28954138E+00
 -4.57433340E-02  1.39745063E-01 -5.35136448E-08 -1.65182855E-16 -8.69055862E-08
 -6.36573219E-01  1.50697873E-07 -3.37231430E-15  2.80278114E-07  3.78400724E-01
  9.60313662E-09 -2.10702222E-08  2.39706710E-02 -2.11212709E-15  1.76097015E-08
  3.54433015E-08 -1.32758711E-01  5.81068429E-15 -4.24901879E-08 -6.75220110E-09
  8.64750213E-02 -2.48415983E-15  1.97502661E-15 -1.75951277E-15  2.39706489E-02
  3.38697102E-16  3.61405414E-15  2.37314659E-15 -1.32758607E-01 -4.01998948E-15
 -1.03481057E-15 -1.90516031E-15  8.64749217E-02  1.02033975E-08 -2.96901579E-08
  1.91357722E-08  2.14900550E-16  2.39707378E-02  8.40982448E-08 -4.87284980E-08
  7.56252790E-16 -1.32758900E-01 -8.13718536E-08  1.25862869E-09  1.33463063E-16
  8.64750712E-02 -6.95207184E-09  1.65935081E-08  1.00129136E-08  1.38564188E-16
  1.34790507E-01 -9.01814714E-08 -3.05957689E-08  7.19737549E-16 -4.54744593E-01
 -4.51712687E-08 -3.33158829E-09  3.51797343E-16  2.25219964E-01  5.92975008E-01
 -9.81090533E-09  2.38194424E-08 -7.78213561E-02  9.09756735E-16 -2.03719355E-08
 -1.00395492E-07  2.62546987E-01 -2.51536297E-15  6.91226607E-08  4.94311980E-08
 -1.30030848E-01  2.05891302E-16 -3.92571055E-08 -8.70514993E-08  1.97658583E-01
  3.74075011E-16  1.10147533E-15 -1.00141316E-16 -7.78213613E-02 -2.83449201E-15
 -3.00337432E-15 -4.63464661E-16  2.62546996E-01  4.35443657E-15 -7.54081789E-17
  2.69832173E-15 -1.30030791E-01  3.43072151E-16  8.45326117E-16  1.13411960E-16
  1.97658638E-01  2.27714671E-09 -1.26304884E-09  1.10055920E-01 -7.93787322E-16
  9.23465906E-09  1.28263605E-08 -3.71297179E-01  1.82039319E-15 -2.70593693E-08
  1.99343400E-08  1.83891211E-01 -4.89720169E-16  4.40261806E-09 -9.75972639E-09
 -2.79531180E-01  7.76980211E-17  3.95316405E-01  5.19193706E-16  1.94251833E-16
  1.98556860E-16 -1.10055926E-01  2.00599159E-15 -4.59060441E-15 -7.00648987E-16
  3.71297193E-01  1.01797563E-15  3.05831369E-16  3.63917768E-15 -1.83891156E-01
 -8.36592991E-16 -1.79543920E-15  4.13592162E-16  2.79531296E-01 -2.48201145E-16
  3.95316624E-01 -2.22120699E-02  6.27229093E-02 -1.18126381E-10 -9.15368574E-16
  3.12068245E-02 -3.25136972E-01 -8.28645511E-10  4.70464710E-16 -1.72471607E-01
  2.63420074E-01 -2.28424961E-08 -2.51532790E-15  2.12821114E-01  5.46625473E-01
 -3.35980572E-08  3.84971230E-15 -1.49748654E-08  2.00986701E-15  7.26338579E-01
 -2.22120752E-02  6.27229239E-02  2.94221070E-02  1.03598313E-15 -1.04022831E-02
 -3.25136903E-01 -1.62607822E-01 -2.04513345E-15  5.74905582E-02  2.63420219E-01
  2.00649643E-01 -5.36529274E-16 -7.09403891E-02 -1.82208390E-01 -2.97545324E-01
 -1.16146259E-15  4.20792330E-01 -5.20785934E-16  1.24630620E-02  7.26338564E-01
 -2.22120701E-02  6.27229141E-02 -1.47110312E-02  2.54802428E-02 -1.04022669E-02
 -3.25137032E-01  8.13038850E-02 -1.40822404E-01  5.74905421E-02  2.63420204E-01
 -1.00324825E-01  1.73767581E-01 -7.09403988E-02 -1.82208391E-01  1.48772751E-01
 -2.57681881E-01 -2.10396131E-01 -3.64416913E-01  1.24630868E-02  1.24630488E-02
  7.26338540E-01 -2.22120701E-02  6.27229141E-02 -1.47110312E-02 -2.54802428E-02
 -1.04022669E-02 -3.25137032E-01  8.13038850E-02  1.40822404E-01  5.74905421E-02
  2.63420204E-01 -1.00324825E-01 -1.73767581E-01 -7.09403988E-02 -1.82208391E-01
  1.48772751E-01  2.57681881E-01 -2.10396131E-01  3.64416913E-01  1.24630868E-02
  1.24630488E-02  1.24630860E-02  7.26338540E-01
Mulliken Charges                           R   N=           5
  2.47114821E-01 -6.17787167E-02 -6.17787617E-02 -6.17786711E-02 -6.17786711E-02
ONIOM Charges                              I   N=          16
           0           0           0           0           0           0
           0           0           0           0           0           0
           0           0           0           0
ONIOM Multiplicities                       I   N=          16
           1           0           0           0           0           0
           0           0           0           0           0           0
           0           0           0           0
Atom Layers                                I   N=           5
           1           1           1           1           1
Atom Modifiers                             I   N=           5
           0           0           0           0           0
Force Field                                I                0
Int Atom Modified Types                    I   N=           5
           0           0           0           0           0
Link Atoms                                 I   N=           5
           0           0           0           0           0
Atom Modified MM Charges                   R   N=           5
  0.00000000E+00  0.00000000E+00  0.00000000E+00  0.00000000E+00  0.00000000E+00
Link Distances                             R   N=          20
  0.00000000E+00  0.00000000E+00  0.00000000E+00  0.00000000E+00  0.00000000E+00
  0.00000000E+00  0.00000000E+00  0.00000000E+00  0.00000000E+00  0.00000000E+00
  0.00000000E+00  0.00000000E+00  0.00000000E+00  0.00000000E+00  0.00000000E+00
  0.00000000E+00  0.00000000E+00  0.00000000E+00  0.00000000E+00  0.00000000E+00
Cartesian Gradient                         R   N=          15
  0.00000000E+00  0.00000000E+00  0.00000000E+00  0.00000000E+00  0.00000000E+00
  0.00000000E+00  0.00000000E+00  0.00000000E+00  0.00000000E+00  0.00000000E+00
  0.00000000E+00  0.00000000E+00  0.00000000E+00  0.00000000E+00  0.00000000E+00
Dipole Moment                              R   N=           3
 -6.07876478E-08 -1.04360964E-14  8.30312175E-07
Quadrupole Moment                          R   N=           6
  4.42700276E-08  1.70710357E-06 -1.75137359E-06  3.10862447E-15 -3.01309533E-07
 -2.77555756E-15
QEq coupling tensors                       R   N=          30
  1.33317371E-07 -5.44009282E-15 -1.61014517E-06  1.49540177E-07  1.08246745E-15
  1.47683022E-06  4.92043924E-01  1.54390389E-16  4.92043934E-01  8.20778041E-09
 -1.83186799E-15 -9.84087858E-01 -8.20072407E-01 -8.11850587E-16  4.92043564E-01
  4.63903480E-01  4.79230913E-16  3.28028843E-01  1.64014592E-01  5.68163467E-01
 -4.92043668E-01 -2.31952064E-01  4.01752620E-01  3.28029077E-01  1.64014592E-01
 -5.68163467E-01 -4.92043668E-01 -2.31952064E-01 -4.01752620E-01  3.28029077E-01
