filename
SP        R                             STO-3G
Number of atoms                            I               2
Charge                                     I               0
Multiplicity                               I               1
Number of electrons                        I               2
Number of alpha electrons                  I               1
Number of beta electrons                   I               1
Atomic numbers                             I   N=           2
           1           1
Current cartesian coordinates              R   N=           6
  0.00000000e+00  0.00000000e+00 -8.50376756e-01  0.00000000e+00  0.00000000e+00
  8.50376756e-01
Nuclear charges                            R   N=           2
  1.00000000e+00  1.00000000e+00
Number of basis functions                  I               2
Number of contracted shells                I               2
Number of primitive shells                 I               6
Highest angular momentum                   I               0
Largest degree of contraction              I               3
Shell types                                I   N=           2
           0           0
Number of primitives per shell             I   N=           2
           3           3
Shell to atom map                          I   N=           2
           1           2
Primitive exponents                        R   N=           6
  3.42525091e+00  6.23913730e-01  1.68855400e-01  3.42525091e+00  6.23913730e-01
  1.68855400e-01
Contraction coefficients                   R   N=           6
  1.54328971e-01  5.35328142e-01  4.44634542e-01  1.54328971e-01  5.35328142e-01
  4.44634542e-01
P(S=P) Contraction coefficients            R   N=           6
  0.00000000e+00  0.00000000e+00  0.00000000e+00  0.00000000e+00  0.00000000e+00
  0.00000000e+00
Alpha Orbital Energies                     R   N=           2
 -5.17668032e-01  5.28477246e-01
Total SCF Density                          R   N=           3
 -1.02780307e+00 -7.81992349e-01 -1.02780307e+00
Alpha MO coefficients                      R   N=           4
 -5.66649566e-01 -5.66649566e-01 -1.06261275e+00  1.06261275e+00
Beta MO coefficients                       R   N=           4
 -5.66649566e-01 -5.66649566e-01 -1.06261275e+00  1.06261275e+00
Beta Orbital Energies                      R   N=           2
 -5.17668032e-01  5.28477246e-01