test hf                                                                 
SP        RHF                                                         STO-3G              
Number of atoms                            I                7
Info1-9                                    I   N=           9
          17          16           0           0           0         111
           1           1           2
Charge                                     I                0
Multiplicity                               I                1
Number of electrons                        I               70
Number of alpha electrons                  I               35
Number of beta electrons                   I               35
Number of basis functions                  I               39
Number of independent functions            I               39
Number of point charges in /Mol/           I                0
Number of translation vectors              I                0
Atomic numbers                             I   N=           7
          16           9           9           9           9           9
           9
Nuclear charges                            R   N=           7
  1.60000000E+01  9.00000000E+00  9.00000000E+00  9.00000000E+00  9.00000000E+00
  9.00000000E+00  9.00000000E+00
Current cartesian coordinates              R   N=          21
  0.00000000E+00  0.00000000E+00  0.00000000E+00  1.88972613E+00  0.00000000E+00
  0.00000000E+00 -1.88972613E+00  0.00000000E+00  0.00000000E+00  0.00000000E+00
  1.88972613E+00  0.00000000E+00  0.00000000E+00 -1.88972613E+00  0.00000000E+00
  0.00000000E+00  0.00000000E+00  1.88972613E+00  0.00000000E+00  0.00000000E+00
 -1.88972613E+00
Force Field                                I                0
Int Atom Types                             I   N=           7
           0           0           0           0           0           0
           0
MM charges                                 R   N=           7
  0.00000000E+00  0.00000000E+00  0.00000000E+00  0.00000000E+00  0.00000000E+00
  0.00000000E+00  0.00000000E+00
Integer atomic weights                     I   N=           7
          32          19          19          19          19          19
          19
Real atomic weights                        R   N=           7
  3.19720718E+01  1.89984032E+01  1.89984032E+01  1.89984032E+01  1.89984032E+01
  1.89984032E+01  1.89984032E+01
Atom fragment info                         I   N=           7
           0           0           0           0           0           0
           0
Atom residue num                           I   N=           7
           0           0           0           0           0           0
           0
Nuclear spins                              I   N=           7
           0           1           1           1           1           1
           1
Nuclear ZEff                               R   N=           7
 -1.36000000E+01 -6.75000000E+00 -6.75000000E+00 -6.75000000E+00 -6.75000000E+00
 -6.75000000E+00 -6.75000000E+00
Nuclear ZNuc                               R   N=           7
  1.60000000E+01  9.00000000E+00  9.00000000E+00  9.00000000E+00  9.00000000E+00
  9.00000000E+00  9.00000000E+00
Nuclear QMom                               R   N=           7
  0.00000000E+00  0.00000000E+00  0.00000000E+00  0.00000000E+00  0.00000000E+00
  0.00000000E+00  0.00000000E+00
Nuclear GFac                               R   N=           7
  0.00000000E+00  2.62886700E+00  2.62886700E+00  2.62886700E+00  2.62886700E+00
  2.62886700E+00  2.62886700E+00
MicOpt                                     I   N=           7
          -1          -1          -1          -1          -1          -1
          -1
Number of contracted shells                I               15
Number of primitive shells                 I               45
Pure/Cartesian d shells                    I                1
Pure/Cartesian f shells                    I                1
Highest angular momentum                   I                1
Largest degree of contraction              I                3
Shell types                                I   N=          15
           0          -1          -1           0          -1           0
          -1           0          -1           0          -1           0
          -1           0          -1
Number of primitives per shell             I   N=          15
           3           3           3           3           3           3
           3           3           3           3           3           3
           3           3           3
Shell to atom map                          I   N=          15
           1           1           1           2           2           3
           3           4           4           5           5           6
           6           7           7
Primitive exponents                        R   N=          45
  5.33125736E+02  9.71095183E+01  2.62816254E+01  3.33297517E+01  7.74511752E+00
  2.51895260E+00  2.02919427E+00  5.66140052E-01  2.21583379E-01  1.66679134E+02
  3.03608123E+01  8.21682067E+00  6.46480325E+00  1.50228124E+00  4.88588486E-01
  1.66679134E+02  3.03608123E+01  8.21682067E+00  6.46480325E+00  1.50228124E+00
  4.88588486E-01  1.66679134E+02  3.03608123E+01  8.21682067E+00  6.46480325E+00
  1.50228124E+00  4.88588486E-01  1.66679134E+02  3.03608123E+01  8.21682067E+00
  6.46480325E+00  1.50228124E+00  4.88588486E-01  1.66679134E+02  3.03608123E+01
  8.21682067E+00  6.46480325E+00  1.50228124E+00  4.88588486E-01  1.66679134E+02
  3.03608123E+01  8.21682067E+00  6.46480325E+00  1.50228124E+00  4.88588486E-01
Contraction coefficients                   R   N=          45
  1.54328967E-01  5.35328142E-01  4.44634542E-01 -9.99672292E-02  3.99512826E-01
  7.00115469E-01 -2.19620369E-01  2.25595434E-01  9.00398426E-01  1.54328967E-01
  5.35328142E-01  4.44634542E-01 -9.99672292E-02  3.99512826E-01  7.00115469E-01
  1.54328967E-01  5.35328142E-01  4.44634542E-01 -9.99672292E-02  3.99512826E-01
  7.00115469E-01  1.54328967E-01  5.35328142E-01  4.44634542E-01 -9.99672292E-02
  3.99512826E-01  7.00115469E-01  1.54328967E-01  5.35328142E-01  4.44634542E-01
 -9.99672292E-02  3.99512826E-01  7.00115469E-01  1.54328967E-01  5.35328142E-01
  4.44634542E-01 -9.99672292E-02  3.99512826E-01  7.00115469E-01  1.54328967E-01
  5.35328142E-01  4.44634542E-01 -9.99672292E-02  3.99512826E-01  7.00115469E-01
P(S=P) Contraction coefficients            R   N=          45
  0.00000000E+00  0.00000000E+00  0.00000000E+00  1.55916275E-01  6.07683719E-01
  3.91957393E-01  1.05876043E-02  5.95167005E-01  4.62001012E-01  0.00000000E+00
  0.00000000E+00  0.00000000E+00  1.55916275E-01  6.07683719E-01  3.91957393E-01
  0.00000000E+00  0.00000000E+00  0.00000000E+00  1.55916275E-01  6.07683719E-01
  3.91957393E-01  0.00000000E+00  0.00000000E+00  0.00000000E+00  1.55916275E-01
  6.07683719E-01  3.91957393E-01  0.00000000E+00  0.00000000E+00  0.00000000E+00
  1.55916275E-01  6.07683719E-01  3.91957393E-01  0.00000000E+00  0.00000000E+00
  0.00000000E+00  1.55916275E-01  6.07683719E-01  3.91957393E-01  0.00000000E+00
  0.00000000E+00  0.00000000E+00  1.55916275E-01  6.07683719E-01  3.91957393E-01
Coordinates of each shell                  R   N=          45
  0.00000000E+00  0.00000000E+00  0.00000000E+00  0.00000000E+00  0.00000000E+00
  0.00000000E+00  0.00000000E+00  0.00000000E+00  0.00000000E+00  1.88972613E+00
  0.00000000E+00  0.00000000E+00  1.88972613E+00  0.00000000E+00  0.00000000E+00
 -1.88972613E+00  0.00000000E+00  0.00000000E+00 -1.88972613E+00  0.00000000E+00
  0.00000000E+00  0.00000000E+00  1.88972613E+00  0.00000000E+00  0.00000000E+00
  1.88972613E+00  0.00000000E+00  0.00000000E+00 -1.88972613E+00  0.00000000E+00
  0.00000000E+00 -1.88972613E+00  0.00000000E+00  0.00000000E+00  0.00000000E+00
  1.88972613E+00  0.00000000E+00  0.00000000E+00  1.88972613E+00  0.00000000E+00
  0.00000000E+00 -1.88972613E+00  0.00000000E+00  0.00000000E+00 -1.88972613E+00
Constraint Structure                       R   N=          21
  0.00000000E+00  0.00000000E+00  0.00000000E+00  1.88972613E+00  0.00000000E+00
  0.00000000E+00 -1.88972613E+00  0.00000000E+00  0.00000000E+00  0.00000000E+00
  1.88972613E+00  0.00000000E+00  0.00000000E+00 -1.88972613E+00  0.00000000E+00
  0.00000000E+00  0.00000000E+00  1.88972613E+00  0.00000000E+00  0.00000000E+00
 -1.88972613E+00
Num ILSW                                   I              100
ILSW                                       I   N=         100
           0           1           0           0           2           0
           0           0           0           0           0          -1
           0           0           0           1           0           0
           0           0           0           0           0           0
           1           1           0           0           0           0
           0           0      100000           0          -1           0
           0           0           0           0           0           0
           0           0           0           1           0           0
           0           0           1           0           0           0
           0           0           4          41           0           0
           0           0           0           0           0           0
           0           0           0           7           0           0
           0           0           0           0           0           0
           0           0           0           0           0           0
           0           0           0           0           0           0
           0           0           0           0           0           0
           0           0           0           0
Num RLSW                                   I               41
RLSW                                       R   N=          41
  1.00000000E+00  1.00000000E+00  1.00000000E+00  1.00000000E+00  1.00000000E+00
  0.00000000E+00  0.00000000E+00  1.00000000E+00  0.00000000E+00  0.00000000E+00
  0.00000000E+00  0.00000000E+00  1.00000000E+00  0.00000000E+00  0.00000000E+00
  0.00000000E+00  0.00000000E+00  1.00000000E+00  0.00000000E+00  0.00000000E+00
  0.00000000E+00  0.00000000E+00  1.00000000E+00  0.00000000E+00  0.00000000E+00
  0.00000000E+00  0.00000000E+00  1.00000000E+00  0.00000000E+00  0.00000000E+00
  0.00000000E+00  0.00000000E+00  1.00000000E+00  0.00000000E+00  0.00000000E+00
  0.00000000E+00  0.00000000E+00  0.00000000E+00  1.00000000E+00  1.00000000E+00
  0.00000000E+00
MxBond                                     I                6
NBond                                      I   N=           7
           6           5           5           5           5           5
           5
IBond                                      I   N=          42
           2           3           4           5           6           7
           1           4           5           6           7           0
           1           4           5           6           7           0
           1           2           3           6           7           0
           1           2           3           6           7           0
           1           2           3           4           5           0
           1           2           3           4           5           0
RBond                                      R   N=          42
  3.00000000E+00  3.00000000E+00  3.00000000E+00  3.00000000E+00  3.00000000E+00
  3.00000000E+00  3.00000000E+00  1.00000000E+00  1.00000000E+00  1.00000000E+00
  1.00000000E+00  0.00000000E+00  3.00000000E+00  1.00000000E+00  1.00000000E+00
  1.00000000E+00  1.00000000E+00  0.00000000E+00  3.00000000E+00  1.00000000E+00
  1.00000000E+00  1.00000000E+00  1.00000000E+00  0.00000000E+00  3.00000000E+00
  1.00000000E+00  1.00000000E+00  1.00000000E+00  1.00000000E+00  0.00000000E+00
  3.00000000E+00  1.00000000E+00  1.00000000E+00  1.00000000E+00  1.00000000E+00
  0.00000000E+00  3.00000000E+00  1.00000000E+00  1.00000000E+00  1.00000000E+00
  1.00000000E+00  0.00000000E+00
Virial Ratio                               R      1.974593307209273E+00
SCF Energy                                 R     -9.732820207707849E+02
Total Energy                               R     -9.732820207707849E+02
RMS Density                                R      1.263869745461644E-10
External E-field                           R   N=          35
  0.00000000E+00  0.00000000E+00  0.00000000E+00  0.00000000E+00  0.00000000E+00
  0.00000000E+00  0.00000000E+00  0.00000000E+00  0.00000000E+00  0.00000000E+00
  0.00000000E+00  0.00000000E+00  0.00000000E+00  0.00000000E+00  0.00000000E+00
  0.00000000E+00  0.00000000E+00  0.00000000E+00  0.00000000E+00  0.00000000E+00
  0.00000000E+00  0.00000000E+00  0.00000000E+00  0.00000000E+00  0.00000000E+00
  0.00000000E+00  0.00000000E+00  0.00000000E+00  0.00000000E+00  0.00000000E+00
  0.00000000E+00  0.00000000E+00  0.00000000E+00  0.00000000E+00  0.00000000E+00
IOpCl                                      I                0
IROHF                                      I                0
Alpha Orbital Energies                     R   N=          39
 -9.19108918E+01 -2.60165730E+01 -2.60157077E+01 -2.60157077E+01 -2.60157077E+01
 -2.60142113E+01 -2.60142113E+01 -9.88708324E+00 -7.51653957E+00 -7.51653957E+00
 -7.51653957E+00 -2.70511514E+00 -2.22379287E+00 -2.22379287E+00 -2.22379287E+00
 -1.80902298E+00 -1.80902298E+00 -1.16316917E+00 -1.16316917E+00 -1.16316917E+00
 -9.37992277E-01 -8.84017666E-01 -8.84017666E-01 -8.84017666E-01 -7.34756609E-01
 -7.34756609E-01 -7.07455430E-01 -7.07455430E-01 -7.07455430E-01 -6.67103091E-01
 -6.67103091E-01 -6.67103091E-01 -4.32998027E-01 -4.32998027E-01 -4.32998027E-01
  2.05739948E+00  2.05739948E+00  2.05739948E+00  2.06222181E+00
Alpha MO coefficients                      R   N=        1521
  9.94049911E-01  1.73340536E-02  4.91356378E-16 -6.74408489E-18 -1.83456249E-16
 -5.80542871E-03 -7.41942501E-16 -1.71761190E-15  1.00798239E-15 -2.31491206E-05
  1.36560297E-03  5.89093890E-05  9.87738696E-17  2.33548137E-16 -2.31491206E-05
  1.36560297E-03 -5.89093890E-05  4.27619874E-16 -5.26478614E-16 -2.31491206E-05
  1.36560297E-03  2.52715898E-16  5.89093890E-05 -1.86537243E-16 -2.31491206E-05
  1.36560297E-03  4.26136991E-17 -5.89093890E-05 -7.86384612E-17 -2.31491206E-05
  1.36560297E-03 -2.08988728E-16  3.34378492E-16  5.89093890E-05 -2.31491206E-05
  1.36560297E-03  4.16469894E-16  1.22051430E-16 -5.89093890E-05 -1.59896593E-04
 -4.50733258E-03  8.17327162E-15  1.72713275E-15  1.42289198E-14 -6.32356108E-02
 -1.61936803E-13 -3.39634488E-14 -2.79183394E-13  4.05054756E-01  2.51478902E-02
 -6.22808885E-03  2.03039946E-15  1.53121349E-14  4.05054756E-01  2.51478902E-02
  6.22808885E-03  1.88047307E-15  1.55557313E-14  4.05054756E-01  2.51478902E-02
  8.14272510E-15 -6.22808885E-03  1.52258534E-14  4.05054756E-01  2.51478902E-02
  8.85865373E-15  6.22808885E-03  1.55152577E-14  4.05054756E-01  2.51478902E-02
  8.35121138E-15  2.09924043E-15 -6.22808885E-03  4.05054756E-01  2.51478902E-02
  8.69730148E-15  1.67423676E-15  6.22808885E-03  9.01832696E-16  2.45847481E-14
  1.20050007E-03  1.12615368E-03  1.56006689E-04  3.45705263E-13 -2.26430214E-02
 -2.12407501E-02 -2.94249279E-03  5.09687811E-01  2.43916339E-02 -7.30431556E-03
  1.16707831E-03  1.61676001E-04 -5.09687811E-01 -2.43916339E-02 -7.30431556E-03
  1.16707831E-03  1.61676001E-04  4.78123093E-01  2.28810719E-02  1.24412646E-03
 -6.85196285E-03  1.61676001E-04 -4.78123093E-01 -2.28810719E-02  1.24412646E-03
 -6.85196285E-03  1.61676001E-04  6.62346551E-02  3.16972748E-03  1.24412646E-03
  1.16707831E-03 -9.49206183E-04 -6.62346551E-02 -3.16972748E-03  1.24412646E-03
  1.16707831E-03 -9.49206183E-04  1.28119934E-16 -9.22920309E-16 -1.11474772E-03
  1.12138816E-03  4.83308102E-04 -1.06900835E-14  2.10256185E-02 -2.11508661E-02
 -9.11583097E-03 -4.73280544E-01 -2.26493267E-02  6.78256447E-03  1.16213962E-03
  5.00871607E-04  4.73280544E-01  2.26493267E-02  6.78256447E-03  1.16213962E-03
  5.00871607E-04  4.76099832E-01  2.27842467E-02 -1.15525785E-03 -6.82296757E-03
  5.00871607E-04 -4.76099832E-01 -2.27842467E-02 -1.15525785E-03 -6.82296757E-03
  5.00871607E-04  2.05194698E-01  9.81980313E-03 -1.15525785E-03  1.16213962E-03
 -2.94063698E-03 -2.05194698E-01 -9.81980312E-03 -1.15525785E-03  1.16213962E-03
 -2.94063698E-03  1.45228177E-15  4.00859113E-14  2.23377998E-04 -4.56099856E-04
  1.57347888E-03  5.65347880E-13 -4.21320491E-03  8.60264741E-03 -2.96778959E-02
  9.48380146E-02  4.53857063E-03 -1.35911978E-03 -4.72674608E-04  1.63065940E-03
 -9.48380146E-02 -4.53857064E-03 -1.35911978E-03 -4.72674608E-04  1.63065940E-03
 -1.93643086E-01 -9.26698885E-03  2.31495595E-04  2.77509129E-03  1.63065940E-03
  1.93643086E-01  9.26698885E-03  2.31495595E-04  2.77509129E-03  1.63065940E-03
  6.68040787E-01  3.19697783E-02  2.31495595E-04 -4.72674608E-04 -9.57366570E-03
 -6.68040787E-01 -3.19697783E-02  2.31495595E-04 -4.72674608E-04 -9.57366570E-03
 -1.61371743E-15 -4.19927141E-14 -1.09423313E-14  1.89126540E-16  9.86800259E-15
 -5.93364140E-13  2.03913959E-13 -5.82301304E-15 -1.89258321E-13 -2.78685042E-01
 -7.82014360E-03  2.13509970E-03  5.83179634E-16  1.11982875E-14 -2.78685042E-01
 -7.82014360E-03 -2.13509970E-03 -2.74098385E-16  1.07040933E-14  5.73519052E-01
  1.60934412E-02 -1.08573564E-14 -4.39392207E-03  1.10710590E-14  5.73519052E-01
  1.60934412E-02 -1.08106129E-14  4.39392207E-03  1.20416559E-14 -2.94834010E-01
 -8.27329761E-03 -1.09933128E-14 -1.91756610E-16  2.25882237E-03 -2.94834010E-01
 -8.27329761E-03 -1.06044872E-14 -8.10665408E-16 -2.25882237E-03  7.04857209E-16
  1.99001967E-14 -5.91878366E-14  4.47117977E-14  3.79762791E-14  2.81950341E-13
  1.10927352E-12 -8.43618266E-13 -7.15178665E-13  5.01343874E-01  1.40681432E-02
 -3.84096379E-03  4.49879346E-14  3.90808961E-14  5.01343874E-01  1.40681432E-02
  3.84096379E-03  4.58201522E-14  3.98659507E-14 -9.32361077E-03 -2.61628591E-04
 -6.14555615E-14  7.14313132E-05  3.83520456E-14 -9.32361081E-03 -2.61628593E-04
 -6.03829828E-14 -7.14313138E-05  3.90137514E-14 -4.92020263E-01 -1.38065146E-02
 -6.14968601E-14  4.65069057E-14  3.76953248E-03 -4.92020263E-01 -1.38065146E-02
 -6.07154666E-14  4.74847581E-14 -3.76953248E-03 -3.65422129E-01  1.03726524E+00
  1.59336192E-15  4.95361713E-16  2.80215434E-16  3.83203420E-02  3.27866787E-15
  5.16258674E-16 -2.41065343E-15 -3.44744012E-03 -3.24090963E-04 -1.17551348E-02
 -1.51481194E-16 -1.20819064E-16 -3.44744012E-03 -3.24090963E-04  1.17551348E-02
  1.99878676E-16  3.65246899E-16 -3.44744012E-03 -3.24090963E-04 -4.54742408E-16
 -1.17551348E-02  4.42882383E-16 -3.44744012E-03 -3.24090963E-04 -6.84372219E-16
  1.17551348E-02 -1.70950781E-16 -3.44744012E-03 -3.24090963E-04 -3.98394900E-16
 -2.76550821E-16 -1.17551348E-02 -3.44744012E-03 -3.24090963E-04 -6.93124075E-16
  3.94344024E-16  1.17551348E-02 -1.81433087E-16  1.02592472E-15  1.44353541E-01
  8.84625799E-01 -3.88711882E-01  1.04882223E-16  9.99363573E-03  6.12428897E-02
 -2.69106315E-02 -1.12783625E-03 -5.29087959E-04 -3.08063294E-03 -5.64278236E-03
  2.47948517E-03  1.12783625E-03  5.29087959E-04 -3.08063294E-03 -5.64278236E-03
  2.47948517E-03 -6.91159385E-03 -3.24235107E-03 -9.20791159E-04 -1.88787012E-02
  2.47948517E-03  6.91159385E-03  3.24235107E-03 -9.20791159E-04 -1.88787012E-02
  2.47948517E-03  3.03701142E-03  1.42471584E-03 -9.20791159E-04 -5.64278236E-03
  8.29545723E-03 -3.03701142E-03 -1.42471584E-03 -9.20791159E-04 -5.64278236E-03
  8.29545723E-03  7.45617682E-18 -8.12397370E-17 -3.23328040E-01  4.14591649E-01
  8.23450314E-01 -3.14513456E-15 -2.23840900E-02  2.87022950E-02  5.70076939E-02
  2.52616654E-03  1.18506946E-03  6.90010790E-03 -2.64456502E-03 -5.25256093E-03
 -2.52616654E-03 -1.18506946E-03  6.90010790E-03 -2.64456502E-03 -5.25256093E-03
 -3.23921040E-03 -1.51957096E-03  2.06241980E-03 -8.84775448E-03 -5.25256093E-03
  3.23921040E-03  1.51957096E-03  2.06241980E-03 -8.84775448E-03 -5.25256093E-03
 -6.43362892E-03 -3.01812926E-03  2.06241980E-03 -2.64456502E-03 -1.75731620E-02
  6.43362892E-03  3.01812926E-03  2.06241980E-03 -2.64456502E-03 -1.75731620E-02
  5.57337316E-16 -1.49041455E-15  9.10559558E-01  6.97399582E-03  3.54020239E-01
  3.30134061E-15  6.30382911E-02  4.82811667E-04  2.45089195E-02 -7.11421468E-03
 -3.33740409E-03 -1.94321507E-02 -4.44851830E-05 -2.25819681E-03  7.11421468E-03
  3.33740409E-03 -1.94321507E-02 -4.44851830E-05 -2.25819681E-03 -5.44879277E-05
 -2.55612518E-05 -5.80820661E-03 -1.48831273E-04 -2.25819681E-03  5.44879277E-05
  2.55612518E-05 -5.80820661E-03 -1.48831273E-04 -2.25819681E-03 -2.76596512E-03
 -1.29756322E-03 -5.80820661E-03 -4.44851830E-05 -7.55510673E-03  2.76596512E-03
  1.29756322E-03 -5.80820661E-03 -4.44851830E-05 -7.55510673E-03 -9.66760559E-02
  3.97263339E-01 -1.89643123E-15  2.86168387E-16  8.87587551E-15  3.65634767E-02
  1.79811661E-14  4.54049442E-16 -2.56433924E-14  8.32696084E-02 -2.81896522E-01
  1.62426893E-01 -1.23029045E-16  1.48850800E-15  8.32696084E-02 -2.81896522E-01
 -1.62426893E-01  3.50007458E-17  2.80232151E-15  8.32696084E-02 -2.81896522E-01
 -2.66278661E-15  1.62426893E-01  1.97686555E-15  8.32696084E-02 -2.81896522E-01
 -2.54682963E-15 -1.62426893E-01  2.36561095E-15  8.32696084E-02 -2.81896522E-01
 -1.60917294E-15 -2.45751701E-16  1.62426893E-01  8.32696084E-02 -2.81896522E-01
 -2.64980611E-15 -8.54986007E-17 -1.62426893E-01 -1.26971611E-15  5.17935038E-15
 -2.14251235E-01 -4.55761190E-02 -1.25171446E-01 -9.17299204E-15  1.69782575E-01
  3.61166218E-02  9.91916351E-02 -1.33027691E-01  4.36123051E-01 -2.24487063E-01
  1.01879684E-02  2.79805031E-02  1.33027691E-01 -4.36123051E-01 -2.24487063E-01
  1.01879684E-02  2.79805031E-02 -2.82980207E-02  9.27733093E-02  4.78931700E-02
 -4.77535128E-02  2.79805031E-02  2.82980207E-02 -9.27733093E-02  4.78931700E-02
 -4.77535128E-02  2.79805031E-02 -7.77184245E-02  2.54795044E-01  4.78931700E-02
  1.01879684E-02 -1.31151497E-01  7.77184245E-02 -2.54795044E-01  4.78931700E-02
  1.01879684E-02 -1.31151497E-01 -1.61464617E-15  6.84479871E-15  7.87528467E-02
 -2.34533722E-01 -4.94023042E-02  3.29114407E-15 -6.24073932E-02  1.85855354E-01
  3.91486677E-02  4.88973114E-02 -1.60306809E-01  8.25152548E-02  5.24270650E-02
  1.10432640E-02 -4.88973114E-02  1.60306809E-01  8.25152548E-02  5.24270650E-02
  1.10432640E-02 -1.45621002E-01  4.77409441E-01 -1.76042088E-02 -2.45738543E-01
  1.10432640E-02  1.45621002E-01 -4.77409441E-01 -1.76042088E-02 -2.45738543E-01
  1.10432640E-02 -3.06736830E-02  1.00561771E-01 -1.76042088E-02  5.24270650E-02
 -5.17624936E-02  3.06736830E-02 -1.00561771E-01 -1.76042088E-02  5.24270650E-02
 -5.17624936E-02 -1.21738625E-15  4.03499862E-15  1.07438646E-01  8.10272541E-02
 -2.13401468E-01 -1.43875429E-14 -8.51393453E-02 -6.42097386E-02  1.69109180E-01
  6.67082035E-02 -2.18698716E-01  1.12571515E-01 -1.81126240E-02  4.77032154E-02
 -6.67082035E-02  2.18698716E-01  1.12571515E-01 -1.81126240E-02  4.77032154E-02
  5.03094814E-02 -1.64936521E-01 -2.40165586E-02  8.48983217E-02  4.77032154E-02
 -5.03094814E-02  1.64936521E-01 -2.40165586E-02  8.48983217E-02  4.77032154E-02
 -1.32500075E-01  4.34393293E-01 -2.40165586E-02 -1.81126240E-02 -2.23596699E-01
  1.32500075E-01 -4.34393293E-01 -2.40165586E-02 -1.81126240E-02 -2.23596699E-01
 -5.62146994E-16 -5.07392906E-15 -1.05560717E-14  1.07868852E-14 -1.05852902E-14
 -1.10971394E-13  3.09936783E-14 -2.73941104E-14  1.34830463E-14  1.13626118E-01
 -4.71393012E-01  1.93328165E-01 -4.47720870E-15  5.51061803E-15  1.13626118E-01
 -4.71393012E-01 -1.93328165E-01 -3.15028423E-15  6.16467036E-15 -1.60415066E-01
  6.65503168E-01 -2.12452017E-15 -2.72936812E-01  6.83114887E-15 -1.60415066E-01
  6.65503168E-01 -1.64980639E-16  2.72936812E-01  6.61246490E-15  4.67889485E-02
 -1.94110155E-01 -7.02156388E-16 -2.87994915E-15  7.96086474E-02  4.67889485E-02
 -1.94110155E-01  5.00247361E-16 -3.89471042E-15 -7.96086474E-02  3.05356462E-16
 -4.50455593E-15 -1.37893494E-15 -4.46531223E-15  5.91652259E-15 -4.62289246E-14
  2.20482696E-14  1.17718551E-14  4.35777249E-14  1.19629294E-01 -4.96297983E-01
  2.03542216E-01  1.54477926E-15 -1.10170828E-14  1.19629294E-01 -4.96297983E-01
 -2.03542216E-01  1.25187365E-15 -1.30918496E-14  3.85884577E-02 -1.60089332E-01
 -4.32238146E-15  6.56559941E-02 -1.09645152E-14  3.85884577E-02 -1.60089332E-01
 -3.92467954E-15 -6.56559941E-02 -1.11834960E-14 -1.58217751E-01  6.56387316E-01
 -1.91976920E-15  1.22054782E-15 -2.69198210E-01 -1.58217751E-01  6.56387316E-01
 -1.27350643E-15  1.39411675E-15  2.69198210E-01  7.78589075E-17 -4.26528104E-16
 -5.69696812E-17  1.27292266E-16  2.67666195E-16 -1.18597099E-15  1.86182121E-16
 -8.14753286E-15 -1.98290936E-15  9.03884081E-17 -6.57704139E-16  3.88252288E-15
 -7.35122420E-02 -1.43990052E-01 -3.02616490E-16  2.31544252E-15 -1.73563246E-16
  7.35122420E-02  1.43990052E-01  6.34998429E-16  8.72764559E-16 -7.35122420E-02
 -8.82654818E-15  4.19732897E-01  2.84372613E-16 -3.91880189E-15  7.35122420E-02
 -4.42022324E-15 -4.19732897E-01 -1.69016563E-15  7.79396312E-15 -1.43990052E-01
  4.19732897E-01 -1.80475733E-15  1.71820853E-15 -8.22917479E-15  1.43990052E-01
 -4.19732897E-01  3.10149291E-15 -7.20880463E-17  1.88779719E-16 -5.02436611E-16
  5.28696964E-16 -1.75192161E-15 -3.39001253E-15 -1.61855217E-15 -2.56831130E-15
  1.40423295E-14 -3.43384340E-16  4.13868768E-15 -5.72163263E-15  7.80098631E-02
  4.14634083E-01  3.39150353E-16 -2.08203437E-15 -6.05522167E-15 -7.80098631E-02
 -4.14634083E-01 -3.36712419E-16  2.73954270E-15  7.80098631E-02 -1.95226977E-15
  1.55903584E-01  1.52637802E-17 -1.35939483E-16 -7.80098631E-02  1.56642898E-15
 -1.55903584E-01  2.81108298E-15 -1.71233266E-14  4.14634083E-01  1.55903584E-01
  2.50355644E-15 -2.87986820E-15  1.86659939E-14 -4.14634083E-01 -1.55903584E-01
 -1.25126589E-16 -6.21472204E-18 -1.18891933E-16 -1.01734784E-15  9.57401507E-17
  2.51904606E-16 -1.99788861E-15  1.08304985E-14  2.54856892E-15 -3.34781111E-15
  1.18609011E-15 -8.47151176E-15  2.67970301E-15  4.36833264E-01 -9.82768097E-02
 -5.40249069E-16  7.23388250E-15  4.98779225E-15 -4.36833264E-01  9.82768097E-02
  1.32052026E-15 -6.68841587E-15  4.36833264E-01  1.50333877E-15  4.27931903E-02
 -1.76910064E-15  9.28781102E-15 -4.36833264E-01  2.59494914E-15 -4.27931903E-02
 -9.13043636E-16  5.57123475E-15 -9.82768097E-02  4.27931903E-02 -1.72165474E-15
  7.76843753E-16 -4.61380797E-15  9.82768097E-02 -4.27931903E-02 -2.73721225E-15
 -4.60669937E-02  2.02075834E-01  9.10650256E-15  1.96139232E-14 -3.71409610E-15
  7.06875802E-02  4.23539010E-16 -4.36535199E-14  4.21623547E-14 -5.50751969E-02
  2.22312837E-01  3.32126703E-01 -3.85863361E-14 -3.20407395E-15 -5.50751969E-02
  2.22312837E-01 -3.32126703E-01 -3.67634145E-14 -2.32549448E-15 -5.50751969E-02
  2.22312837E-01 -1.79943971E-15  3.32126703E-01 -3.62129090E-15 -5.50751969E-02
  2.22312837E-01 -4.06805808E-15 -3.32126703E-01 -8.06917642E-15 -5.50751969E-02
  2.22312837E-01 -7.74729094E-15 -3.32717918E-14  3.32126703E-01 -5.50751969E-02
  2.22312837E-01 -6.09643610E-15 -3.26717846E-14 -3.32126703E-01  1.08112929E-16
  4.71836005E-15 -4.45665145E-02  1.06029480E-02  1.04895748E-01  7.32678017E-14
  1.01765445E-01 -2.42113105E-02 -2.39524285E-01  4.51333049E-02 -2.31330648E-01
 -1.42842667E-01 -2.24966818E-02 -2.22561336E-01 -4.51333049E-02  2.31330648E-01
 -1.42842667E-01 -2.24966818E-02 -2.22561336E-01 -1.07377947E-02  5.50365415E-02
  9.45584848E-02  3.39841107E-02 -2.22561336E-01  1.07377947E-02 -5.50365415E-02
  9.45584848E-02  3.39841107E-02 -2.22561336E-01 -1.06229797E-01  5.44480574E-01
  9.45584848E-02 -2.24966818E-02  3.36207320E-01  1.06229797E-01 -5.44480574E-01
  9.45584848E-02 -2.24966818E-02  3.36207320E-01  3.35346111E-16 -1.34546407E-15
  9.64733419E-02 -4.18336922E-02  4.52167141E-02  1.17228941E-16 -2.20292134E-01
  9.55251796E-02 -1.03250144E-01 -9.77002757E-02  5.00762533E-01  3.09212187E-01
  8.87601507E-02 -9.59380381E-02  9.77002757E-02 -5.00762533E-01  3.09212187E-01
  8.87601507E-02 -9.59380381E-02  4.23657269E-02 -2.17145433E-01 -2.04691193E-01
 -1.34083543E-01 -9.59380381E-02 -4.23657269E-02  2.17145433E-01 -2.04691193E-01
 -1.34083543E-01 -9.59380381E-02 -4.57917736E-02  2.34705628E-01 -2.04691193E-01
  8.87601507E-02  1.44926658E-01  4.57917736E-02 -2.34705628E-01 -2.04691193E-01
  8.87601507E-02  1.44926658E-01  8.65863635E-15 -3.53887867E-14  4.25256959E-02
  1.06015256E-01  7.35156399E-03  2.02075772E-14 -9.71053362E-02 -2.42080625E-01
 -1.67869350E-02 -4.30665315E-02  2.20737406E-01  1.36301523E-01 -2.24936638E-01
 -1.55980955E-02  4.30665315E-02 -2.20737406E-01  1.36301523E-01 -2.24936638E-01
 -1.55980955E-02 -1.07363542E-01  5.50291582E-01 -9.02284017E-02  3.39795517E-01
 -1.55980955E-02  1.07363542E-01 -5.50291582E-01 -9.02284017E-02  3.39795517E-01
 -1.55980955E-02 -7.44506010E-03  3.81596380E-02 -9.02284017E-02 -2.24936638E-01
  2.35629152E-02  7.44506010E-03 -3.81596380E-02 -9.02284017E-02 -2.24936638E-01
  2.35629152E-02  2.36711214E-15 -9.93254438E-15  3.97772979E-15  2.36959002E-15
  3.16752985E-15 -6.03590340E-15  5.70273291E-14 -1.11871959E-14  6.87542896E-15
 -3.95592901E-02  1.27091583E-01  6.00627012E-01  4.83118566E-14 -4.62772383E-14
 -3.95592901E-02  1.27091583E-01 -6.00627012E-01  4.73802479E-14 -4.74653371E-14
  1.65457001E-02 -5.31561414E-02  5.69411664E-14 -2.51212659E-01  8.02163876E-14
  1.65457001E-02 -5.31561414E-02  5.35851181E-14  2.51212659E-01  8.21606599E-14
  2.30135899E-02 -7.39354414E-02  1.04239234E-13 -6.38868063E-14 -3.49414354E-01
  2.30135899E-02 -7.39354414E-02  1.04398500E-13 -5.78122062E-14  3.49414354E-01
  1.69723489E-16  5.63793670E-15 -7.83619804E-17 -3.10813702E-16  5.41787592E-15
  8.57926382E-14  1.13864893E-15  2.48006781E-14 -3.50638699E-15  3.73423794E-03
 -1.19969345E-02 -5.66967753E-02  1.61320249E-14  1.45246064E-14  3.73423794E-03
 -1.19969345E-02  5.66967753E-02  7.97241396E-15  1.33353079E-14 -3.61264691E-02