 Entering Gaussian System, Link 0=g09
 Initial command:
 /aplic/Gaussian/g09d01_prebuilt/g09/l1.exe "/scratch/1700883.1.iqtc06.q/Gau-129020.inp" -scrdir="/scratch/1700883.1.iqtc06.q/"
 Entering Link 1 = /aplic/Gaussian/g09d01_prebuilt/g09/l1.exe PID=    129021.
  
 Copyright (c) 1988,1990,1992,1993,1995,1998,2003,2009,2013,
            Gaussian, Inc.  All Rights Reserved.
  
 This is part of the Gaussian(R) 09 program.  It is based on
 the Gaussian(R) 03 system (copyright 2003, Gaussian, Inc.),
 the Gaussian(R) 98 system (copyright 1998, Gaussian, Inc.),
 the Gaussian(R) 94 system (copyright 1995, Gaussian, Inc.),
 the Gaussian 92(TM) system (copyright 1992, Gaussian, Inc.),
 the Gaussian 90(TM) system (copyright 1990, Gaussian, Inc.),
 the Gaussian 88(TM) system (copyright 1988, Gaussian, Inc.),
 the Gaussian 86(TM) system (copyright 1986, Carnegie Mellon
 University), and the Gaussian 82(TM) system (copyright 1983,
 Carnegie Mellon University). Gaussian is a federally registered
 trademark of Gaussian, Inc.
  
 This software contains proprietary and confidential information,
 including trade secrets, belonging to Gaussian, Inc.
  
 This software is provided under written license and may be
 used, copied, transmitted, or stored only in accord with that
 written license.
  
 The following legend is applicable only to US Government
 contracts under FAR:
  
                    RESTRICTED RIGHTS LEGEND
  
 Use, reproduction and disclosure by the US Government is
 subject to restrictions as set forth in subparagraphs (a)
 and (c) of the Commercial Computer Software - Restricted
 Rights clause in FAR 52.227-19.
  
 Gaussian, Inc.
 340 Quinnipiac St., Bldg. 40, Wallingford CT 06492
  
  
 ---------------------------------------------------------------
 Warning -- This program may not be used in any manner that
 competes with the business of Gaussian, Inc. or will provide
 assistance to any competitor of Gaussian, Inc.  The licensee
 of this program is prohibited from giving any competitor of
 Gaussian, Inc. access to this program.  By using this program,
 the user acknowledges that Gaussian, Inc. is engaged in the
 business of creating and licensing software in the field of
 computational chemistry and represents and warrants to the
 licensee that it is not a competitor of Gaussian, Inc. and that
 it will not use this program in any manner prohibited above.
 ---------------------------------------------------------------
  

 Cite this work as:
 Gaussian 09, Revision D.01,
 M. J. Frisch, G. W. Trucks, H. B. Schlegel, G. E. Scuseria, 
 M. A. Robb, J. R. Cheeseman, G. Scalmani, V. Barone, B. Mennucci, 
 G. A. Petersson, H. Nakatsuji, M. Caricato, X. Li, H. P. Hratchian, 
 A. F. Izmaylov, J. Bloino, G. Zheng, J. L. Sonnenberg, M. Hada, 
 M. Ehara, K. Toyota, R. Fukuda, J. Hasegawa, M. Ishida, T. Nakajima, 
 Y. Honda, O. Kitao, H. Nakai, T. Vreven, J. A. Montgomery, Jr., 
 J. E. Peralta, F. Ogliaro, M. Bearpark, J. J. Heyd, E. Brothers, 
 K. N. Kudin, V. N. Staroverov, T. Keith, R. Kobayashi, J. Normand, 
 K. Raghavachari, A. Rendell, J. C. Burant, S. S. Iyengar, J. Tomasi, 
 M. Cossi, N. Rega, J. M. Millam, M. Klene, J. E. Knox, J. B. Cross, 
 V. Bakken, C. Adamo, J. Jaramillo, R. Gomperts, R. E. Stratmann, 
 O. Yazyev, A. J. Austin, R. Cammi, C. Pomelli, J. W. Ochterski, 
 R. L. Martin, K. Morokuma, V. G. Zakrzewski, G. A. Voth, 
 P. Salvador, J. J. Dannenberg, S. Dapprich, A. D. Daniels, 
 O. Farkas, J. B. Foresman, J. V. Ortiz, J. Cioslowski, 
 and D. J. Fox, Gaussian, Inc., Wallingford CT, 2013.
 
 ******************************************
 Gaussian 09:  ES64L-G09RevD.01 24-Apr-2013
                22-Jun-2020 
 ******************************************
 %NProcShared=8
 Will use up to    8 processors via shared memory.
 %Chk=sf6_freq
 %Mem=512MB
 ----------------------------------------------------------------------
 #p RHF/STO-3G NOSYMM opt freq pop=full scf=(xqc,direct,MaxConventional
 Cycles=200,MaxCycle=300)
 ----------------------------------------------------------------------
 1/18=20,19=15,38=1/1,3;
 2/9=110,12=2,15=1,17=6,18=5,40=1/2;
 3/6=3,11=1,16=1,25=1,30=1,71=1,116=1/1,2,3;
 4//1;
 5/5=2,7=300,8=3,13=1,38=5,85=200/2,8;
 6/7=3,28=1/1;
 7/30=1/1,2,3,16;
 1/18=20,19=15/3(2);
 2/9=110,15=1/2;
 99//99;
 2/9=110,15=1/2;
 3/6=3,11=1,16=1,25=1,30=1,71=1,116=1/1,2,3;
 4/5=5,16=3,69=1/1;
 5/5=2,7=300,8=3,13=1,38=5,85=200/2,8;
 7/30=1/1,2,3,16;
 1/18=20,19=15/3(-5);
 2/9=110,15=1/2;
 6/7=3,19=2,28=1/1;
 99/9=1/99;
 Leave Link    1 at Mon Jun 22 12:15:33 2020, MaxMem=    67108864 cpu:         0.5
 (Enter /aplic/Gaussian/g09d01_prebuilt/g09/l101.exe)
 -------
 test hf
 -------
 Symbolic Z-matrix:
 Charge =  0 Multiplicity = 1
 S                     0.        0.        0. 
 F                     1.6       0.        0. 
 F                    -1.6       0.        0. 
 F                     0.        1.6       0. 
 F                     0.       -1.6       0. 
 F                     0.        0.        1.6 
 F                     0.        0.       -1.6 
 
 NAtoms=      7 NQM=        7 NQMF=       0 NMMI=      0 NMMIF=      0
                NMic=       0 NMicF=      0.
                    Isotopes and Nuclear Properties:
 (Nuclear quadrupole moments (NQMom) in fm**2, nuclear magnetic moments (NMagM)
  in nuclear magnetons)

  Atom         1           2           3           4           5           6           7
 IAtWgt=          32          19          19          19          19          19          19
 AtmWgt=  31.9720718  18.9984033  18.9984033  18.9984033  18.9984033  18.9984033  18.9984033
 NucSpn=           0           1           1           1           1           1           1
 AtZEff=   0.0000000   0.0000000   0.0000000   0.0000000   0.0000000   0.0000000   0.0000000
 NQMom=    0.0000000   0.0000000   0.0000000   0.0000000   0.0000000   0.0000000   0.0000000
 NMagM=    0.0000000   2.6288670   2.6288670   2.6288670   2.6288670   2.6288670   2.6288670
 AtZNuc=  16.0000000   9.0000000   9.0000000   9.0000000   9.0000000   9.0000000   9.0000000
 Leave Link  101 at Mon Jun 22 12:15:33 2020, MaxMem=    67108864 cpu:         0.8
 (Enter /aplic/Gaussian/g09d01_prebuilt/g09/l103.exe)

 GradGradGradGradGradGradGradGradGradGradGradGradGradGradGradGradGradGrad
 Berny optimization.
 Initialization pass.
                           ----------------------------
                           !    Initial Parameters    !
                           ! (Angstroms and Degrees)  !
 --------------------------                            --------------------------
 ! Name  Definition              Value          Derivative Info.                !
 --------------------------------------------------------------------------------
 ! R1    R(1,2)                  1.6            estimate D2E/DX2                !
 ! R2    R(1,3)                  1.6            estimate D2E/DX2                !
 ! R3    R(1,4)                  1.6            estimate D2E/DX2                !
 ! R4    R(1,5)                  1.6            estimate D2E/DX2                !
 ! R5    R(1,6)                  1.6            estimate D2E/DX2                !
 ! R6    R(1,7)                  1.6            estimate D2E/DX2                !
 ! A1    A(2,1,4)               90.0            estimate D2E/DX2                !
 ! A2    A(2,1,5)               90.0            estimate D2E/DX2                !
 ! A3    A(2,1,6)               90.0            estimate D2E/DX2                !
 ! A4    A(2,1,7)               90.0            estimate D2E/DX2                !
 ! A5    A(3,1,4)               90.0            estimate D2E/DX2                !
 ! A6    A(3,1,5)               90.0            estimate D2E/DX2                !
 ! A7    A(3,1,6)               90.0            estimate D2E/DX2                !
 ! A8    A(3,1,7)               90.0            estimate D2E/DX2                !
 ! A9    A(4,1,6)               90.0            estimate D2E/DX2                !
 ! A10   A(4,1,7)               90.0            estimate D2E/DX2                !
 ! A11   A(5,1,6)               90.0            estimate D2E/DX2                !
 ! A12   A(5,1,7)               90.0            estimate D2E/DX2                !
 ! A13   L(2,1,3,4,-1)         180.0            estimate D2E/DX2                !
 ! A14   L(4,1,5,2,-1)         180.0            estimate D2E/DX2                !
 ! A15   L(6,1,7,2,-1)         180.0            estimate D2E/DX2                !
 ! A16   L(2,1,3,4,-2)         180.0            estimate D2E/DX2                !
 ! A17   L(4,1,5,2,-2)         180.0            estimate D2E/DX2                !
 ! A18   L(6,1,7,2,-2)         180.0            estimate D2E/DX2                !
 ! D1    D(2,1,6,4)             90.0            estimate D2E/DX2                !
 ! D2    D(2,1,7,4)            -90.0            estimate D2E/DX2                !
 ! D3    D(2,1,6,5)            -90.0            estimate D2E/DX2                !
 ! D4    D(2,1,7,5)             90.0            estimate D2E/DX2                !
 ! D5    D(3,1,6,4)            -90.0            estimate D2E/DX2                !
 ! D6    D(3,1,7,4)             90.0            estimate D2E/DX2                !
 ! D7    D(3,1,6,5)             90.0            estimate D2E/DX2                !
 ! D8    D(3,1,7,5)            -90.0            estimate D2E/DX2                !
 --------------------------------------------------------------------------------
 Trust Radius=3.00D-01 FncErr=1.00D-07 GrdErr=1.00D-07
 Number of steps in this run=     42 maximum allowed number of steps=    100.
 GradGradGradGradGradGradGradGradGradGradGradGradGradGradGradGradGradGrad

 Leave Link  103 at Mon Jun 22 12:15:34 2020, MaxMem=    67108864 cpu:         0.1
 (Enter /aplic/Gaussian/g09d01_prebuilt/g09/l202.exe)
                          Input orientation:                          
 ---------------------------------------------------------------------
 Center     Atomic      Atomic             Coordinates (Angstroms)
 Number     Number       Type             X           Y           Z
 ---------------------------------------------------------------------
      1         16           0        0.000000    0.000000    0.000000
      2          9           0        1.600000    0.000000    0.000000
      3          9           0       -1.600000    0.000000    0.000000
      4          9           0        0.000000    1.600000    0.000000
      5          9           0        0.000000   -1.600000    0.000000
      6          9           0        0.000000    0.000000    1.600000
      7          9           0        0.000000    0.000000   -1.600000
 ---------------------------------------------------------------------
                    Distance matrix (angstroms):
                    1          2          3          4          5
     1  S    0.000000
     2  F    1.600000   0.000000
     3  F    1.600000   3.200000   0.000000
     4  F    1.600000   2.262742   2.262742   0.000000
     5  F    1.600000   2.262742   2.262742   3.200000   0.000000
     6  F    1.600000   2.262742   2.262742   2.262742   2.262742
     7  F    1.600000   2.262742   2.262742   2.262742   2.262742
                    6          7
     6  F    0.000000
     7  F    3.200000   0.000000
 Symmetry turned off by external request.
 Stoichiometry    F6S
 Framework group  OH[O(S),3C4(F.F)]
 Deg. of freedom     1
 Full point group                 OH      NOp  48
 Rotational constants (GHZ):      2.5977667      2.5977667      2.5977667
 Leave Link  202 at Mon Jun 22 12:15:34 2020, MaxMem=    67108864 cpu:         0.3
 (Enter /aplic/Gaussian/g09d01_prebuilt/g09/l301.exe)
 Standard basis: STO-3G (5D, 7F)
 Ernie: Thresh=  0.10000D-02 Tol=  0.10000D-05 Strict=F.
    39 basis functions,   117 primitive gaussians,    39 cartesian basis functions
    35 alpha electrons       35 beta electrons
       nuclear repulsion energy       553.2573484467 Hartrees.



 Warning!  S  atom    1 may be hypervalent but has no d functions.



 IExCor=    0 DFT=F Ex=HF Corr=None ExCW=0 ScaHFX=  1.000000
 ScaDFX=  1.000000  1.000000  1.000000  1.000000 ScalE2=  1.000000  1.000000
 IRadAn=      0 IRanWt=     -1 IRanGd=            0 ICorTp=0 IEmpDi=  4
 NAtoms=    7 NActive=    7 NUniq=    7 SFac= 1.00D+00 NAtFMM=   60 NAOKFM=F Big=F
 Integral buffers will be    131072 words long.
 Raffenetti 1 integral format.
 Two-electron integral symmetry is turned off.
 Leave Link  301 at Mon Jun 22 12:15:34 2020, MaxMem=    67108864 cpu:         0.5
 (Enter /aplic/Gaussian/g09d01_prebuilt/g09/l302.exe)
 NPDir=0 NMtPBC=     1 NCelOv=     1 NCel=       1 NClECP=     1 NCelD=      1
         NCelK=      1 NCelE2=     1 NClLst=     1 CellRange=     0.0.
 One-electron integrals computed using PRISM.
 NBasis=    39 RedAO= T EigKep=  3.56D-01  NBF=    39
 NBsUse=    39 1.00D-06 EigRej= -1.00D+00 NBFU=    39
 Leave Link  302 at Mon Jun 22 12:15:34 2020, MaxMem=    67108864 cpu:         1.0
 (Enter /aplic/Gaussian/g09d01_prebuilt/g09/l303.exe)
 DipDrv:  MaxL=1.
 Leave Link  303 at Mon Jun 22 12:15:34 2020, MaxMem=    67108864 cpu:         0.2
 (Enter /aplic/Gaussian/g09d01_prebuilt/g09/l401.exe)
 ExpMin= 2.22D-01 ExpMax= 5.33D+02 ExpMxC= 5.33D+02 IAcc=1 IRadAn=         1 AccDes= 0.00D+00
 Harris functional with IExCor=  205 and IRadAn=       1 diagonalized for initial guess.
 HarFok:  IExCor=  205 AccDes= 0.00D+00 IRadAn=         1 IDoV= 1 UseB2=F ITyADJ=14
 ICtDFT=  3500011 ScaDFX=  1.000000  1.000000  1.000000  1.000000
 FoFCou: FMM=F IPFlag=           0 FMFlag=      100000 FMFlg1=           0
         NFxFlg=           0 DoJE=T BraDBF=F KetDBF=T FulRan=T
         wScrn=  0.000000 ICntrl=     500 IOpCl=  0 I1Cent=   200000004 NGrid=           0
         NMat0=    1 NMatS0=      1 NMatT0=    0 NMatD0=    1 NMtDS0=    0 NMtDT0=    0
 Symmetry not used in FoFCou.
 Harris En= -980.444182491001    
 JPrj=0 DoOrth=F DoCkMO=F.
 Leave Link  401 at Mon Jun 22 12:15:34 2020, MaxMem=    67108864 cpu:         1.1
 (Enter /aplic/Gaussian/g09d01_prebuilt/g09/l502.exe)
 Closed shell SCF:
 Using DIIS extrapolation, IDIIS=  1040.
 Two-electron integral symmetry not used.
 Keep R1 ints in memory in canonical form, NReq=1165877.
 IVT=       47649 IEndB=       47649 NGot=    67108864 MDV=    66756626
 LenX=    66756626 LenY=    66754664
 Requested convergence on RMS density matrix=1.00D-08 within 200 cycles.
 Requested convergence on MAX density matrix=1.00D-06.
 Requested convergence on             energy=1.00D-06.
 No special actions if energy rises.
 FoFCou: FMM=F IPFlag=           0 FMFlag=           0 FMFlg1=           0
         NFxFlg=           0 DoJE=F BraDBF=F KetDBF=F FulRan=T
         wScrn=  0.000000 ICntrl=     600 IOpCl=  0 I1Cent=           0 NGrid=           0
         NMat0=    1 NMatS0=    780 NMatT0=    0 NMatD0=    1 NMtDS0=    0 NMtDT0=    0
 Symmetry not used in FoFCou.

 Cycle   1  Pass 1  IDiag  1:
 E= -980.743806651036    
 DIIS: error= 7.99D-02 at cycle   1 NSaved=   1.
 NSaved= 1 IEnMin= 1 EnMin= -980.743806651036     IErMin= 1 ErrMin= 7.99D-02
 ErrMax= 7.99D-02  0.00D+00 EMaxC= 1.00D-01 BMatC= 1.87D-01 BMatP= 1.87D-01
 IDIUse=3 WtCom= 2.01D-01 WtEn= 7.99D-01
 Coeff-Com:  0.100D+01
 Coeff-En:   0.100D+01
 Coeff:      0.100D+01
 Gap=     0.691 Goal=   None    Shift=    0.000
 GapD=    0.691 DampG=2.000 DampE=0.500 DampFc=1.0000 IDamp=-1.
 RMSDP=1.59D-02 MaxDP=1.86D-01              OVMax= 0.00D+00

 Cycle   2  Pass 1  IDiag  1:
 E= -980.917366748471     Delta-E=       -0.173560097435 Rises=F Damp=F
 DIIS: error= 1.20D-02 at cycle   2 NSaved=   2.
 NSaved= 2 IEnMin= 2 EnMin= -980.917366748471     IErMin= 2 ErrMin= 1.20D-02
 ErrMax= 1.20D-02  0.00D+00 EMaxC= 1.00D-01 BMatC= 4.70D-03 BMatP= 1.87D-01
 IDIUse=3 WtCom= 8.80D-01 WtEn= 1.20D-01
 Coeff-Com:  0.104D+00 0.896D+00
 Coeff-En:   0.000D+00 0.100D+01
 Coeff:      0.916D-01 0.908D+00
 Gap=     0.726 Goal=   None    Shift=    0.000
 RMSDP=2.69D-03 MaxDP=2.46D-02 DE=-1.74D-01 OVMax= 0.00D+00

 Cycle   3  Pass 1  IDiag  1:
 E= -980.924376708893     Delta-E=       -0.007009960422 Rises=F Damp=F
 DIIS: error= 2.30D-03 at cycle   3 NSaved=   3.
 NSaved= 3 IEnMin= 3 EnMin= -980.924376708893     IErMin= 3 ErrMin= 2.30D-03
 ErrMax= 2.30D-03  0.00D+00 EMaxC= 1.00D-01 BMatC= 1.90D-04 BMatP= 4.70D-03
 IDIUse=3 WtCom= 9.77D-01 WtEn= 2.30D-02
 Coeff-Com: -0.336D-01-0.180D+00 0.121D+01
 Coeff-En:   0.000D+00 0.000D+00 0.100D+01
 Coeff:     -0.328D-01-0.176D+00 0.121D+01
 Gap=     0.723 Goal=   None    Shift=    0.000
 RMSDP=9.91D-04 MaxDP=4.88D-03 DE=-7.01D-03 OVMax= 0.00D+00

 Cycle   4  Pass 1  IDiag  1:
 E= -980.924949350964     Delta-E=       -0.000572642071 Rises=F Damp=F
 DIIS: error= 4.69D-04 at cycle   4 NSaved=   4.
 NSaved= 4 IEnMin= 4 EnMin= -980.924949350964     IErMin= 4 ErrMin= 4.69D-04
 ErrMax= 4.69D-04  0.00D+00 EMaxC= 1.00D-01 BMatC= 6.92D-06 BMatP= 1.90D-04
 IDIUse=3 WtCom= 9.95D-01 WtEn= 4.69D-03
 Coeff-Com:  0.228D-02-0.130D-01-0.207D+00 0.122D+01
 Coeff-En:   0.000D+00 0.000D+00 0.000D+00 0.100D+01
 Coeff:      0.227D-02-0.130D-01-0.206D+00 0.122D+01
 Gap=     0.723 Goal=   None    Shift=    0.000
 RMSDP=2.19D-04 MaxDP=1.17D-03 DE=-5.73D-04 OVMax= 0.00D+00

 Cycle   5  Pass 1  IDiag  1:
 E= -980.924970066217     Delta-E=       -0.000020715253 Rises=F Damp=F
 DIIS: error= 7.06D-06 at cycle   5 NSaved=   5.
 NSaved= 5 IEnMin= 5 EnMin= -980.924970066217     IErMin= 5 ErrMin= 7.06D-06
 ErrMax= 7.06D-06  0.00D+00 EMaxC= 1.00D-01 BMatC= 2.10D-09 BMatP= 6.92D-06
 IDIUse=1 WtCom= 1.00D+00 WtEn= 0.00D+00
 Coeff-Com: -0.178D-03 0.134D-02 0.196D-01-0.123D+00 0.110D+01
 Coeff:     -0.178D-03 0.134D-02 0.196D-01-0.123D+00 0.110D+01
 Gap=     0.723 Goal=   None    Shift=    0.000
 RMSDP=2.31D-06 MaxDP=3.14D-05 DE=-2.07D-05 OVMax= 0.00D+00

 Cycle   6  Pass 1  IDiag  1:
 E= -980.924970069725     Delta-E=       -0.000000003507 Rises=F Damp=F
 DIIS: error= 8.61D-07 at cycle   6 NSaved=   6.
 NSaved= 6 IEnMin= 6 EnMin= -980.924970069725     IErMin= 6 ErrMin= 8.61D-07
 ErrMax= 8.61D-07  0.00D+00 EMaxC= 1.00D-01 BMatC= 3.12D-11 BMatP= 2.10D-09
 IDIUse=1 WtCom= 1.00D+00 WtEn= 0.00D+00
 Coeff-Com:  0.105D-04-0.279D-04-0.143D-02 0.846D-02-0.150D+00 0.114D+01
 Coeff:      0.105D-04-0.279D-04-0.143D-02 0.846D-02-0.150D+00 0.114D+01
 Gap=     0.723 Goal=   None    Shift=    0.000
 RMSDP=2.37D-07 MaxDP=3.35D-06 DE=-3.51D-09 OVMax= 0.00D+00

 Cycle   7  Pass 1  IDiag  1:
 E= -980.924970069765     Delta-E=       -0.000000000040 Rises=F Damp=F
 DIIS: error= 1.32D-07 at cycle   7 NSaved=   7.
 NSaved= 7 IEnMin= 7 EnMin= -980.924970069765     IErMin= 7 ErrMin= 1.32D-07
 ErrMax= 1.32D-07  0.00D+00 EMaxC= 1.00D-01 BMatC= 1.54D-13 BMatP= 3.12D-11
 IDIUse=1 WtCom= 1.00D+00 WtEn= 0.00D+00
 Coeff-Com: -0.529D-06-0.482D-05 0.124D-03-0.668D-03 0.177D-01-0.192D+00
 Coeff-Com:  0.117D+01
 Coeff:     -0.529D-06-0.482D-05 0.124D-03-0.668D-03 0.177D-01-0.192D+00
 Coeff:      0.117D+01
 Gap=     0.723 Goal=   None    Shift=    0.000
 RMSDP=2.66D-08 MaxDP=4.94D-07 DE=-4.05D-11 OVMax= 0.00D+00

 Cycle   8  Pass 1  IDiag  1:
 E= -980.924970069767     Delta-E=       -0.000000000002 Rises=F Damp=F
 DIIS: error= 2.87D-09 at cycle   8 NSaved=   8.
 NSaved= 8 IEnMin= 8 EnMin= -980.924970069767     IErMin= 8 ErrMin= 2.87D-09
 ErrMax= 2.87D-09  0.00D+00 EMaxC= 1.00D-01 BMatC= 2.07D-16 BMatP= 1.54D-13
 IDIUse=1 WtCom= 1.00D+00 WtEn= 0.00D+00
 Coeff-Com:  0.768D-07 0.530D-06-0.171D-04 0.916D-04-0.220D-02 0.235D-01
 Coeff-Com: -0.151D+00 0.113D+01
 Coeff:      0.768D-07 0.530D-06-0.171D-04 0.916D-04-0.220D-02 0.235D-01
 Coeff:     -0.151D+00 0.113D+01
 Gap=     0.723 Goal=   None    Shift=    0.000
 RMSDP=7.08D-10 MaxDP=9.56D-09 DE=-1.59D-12 OVMax= 0.00D+00

 SCF Done:  E(RHF) =  -980.924970070     A.U. after    8 cycles
            NFock=  8  Conv=0.71D-09     -V/T= 2.0100
 KE= 9.712536316251D+02 PE=-3.446554911475D+03 EE= 9.411189613334D+02
 Leave Link  502 at Mon Jun 22 12:15:35 2020, MaxMem=    67108864 cpu:         1.0
 (Enter /aplic/Gaussian/g09d01_prebuilt/g09/l508.exe)
 QCSCF skips out because SCF is already converged.
 Leave Link  508 at Mon Jun 22 12:15:35 2020, MaxMem=    67108864 cpu:         0.0
 (Enter /aplic/Gaussian/g09d01_prebuilt/g09/l601.exe)
 Copying SCF densities to generalized density rwf, IOpCl= 0 IROHF=0.

 **********************************************************************

            Population analysis using the SCF density.

 **********************************************************************

 Alpha  occ. eigenvalues --  -91.45401 -25.92173 -25.92166 -25.92166 -25.92166
 Alpha  occ. eigenvalues --  -25.92124 -25.92124  -9.26825  -6.90393  -6.90393
 Alpha  occ. eigenvalues --   -6.90393  -1.69647  -1.55797  -1.55797  -1.55797
 Alpha  occ. eigenvalues --   -1.49125  -1.49125  -0.95985  -0.75408  -0.75408
 Alpha  occ. eigenvalues --   -0.75408  -0.56334  -0.56334  -0.56334  -0.51842
 Alpha  occ. eigenvalues --   -0.51842  -0.51842  -0.48888  -0.48888  -0.48888
 Alpha  occ. eigenvalues --   -0.48753  -0.48753  -0.48753  -0.40949  -0.40949
 Alpha virt. eigenvalues --    0.31391   0.44241   0.44241   0.44241
     Molecular Orbital Coefficients:
                           1         2         3         4         5
                           O         O         O         O         O
     Eigenvalues --   -91.45401 -25.92173 -25.92166 -25.92166 -25.92166
   1 1   S  1S          0.99418  -0.00038   0.00000   0.00000   0.00000
   2        2S          0.01710   0.00125   0.00000   0.00000   0.00000
   3        2PX         0.00000   0.00000   0.00010   0.00105  -0.00020
   4        2PY         0.00000   0.00000   0.00017   0.00018   0.00105
   5        2PZ         0.00000   0.00000   0.00106  -0.00013  -0.00015
   6        3S         -0.00287  -0.00751   0.00000   0.00000   0.00000
   7        3PX         0.00000   0.00000  -0.00055  -0.00553   0.00105
   8        3PY         0.00000   0.00000  -0.00090  -0.00095  -0.00550
   9        3PZ         0.00000   0.00000  -0.00556   0.00070   0.00079
  10 2   F  1S         -0.00006   0.40605   0.06842   0.68782  -0.13010
  11        2S          0.00044   0.00935   0.00154   0.01544  -0.00292
  12        2PX        -0.00032  -0.00125  -0.00018  -0.00183   0.00035
  13        2PY         0.00000   0.00000   0.00003   0.00004   0.00020
  14        2PZ         0.00000   0.00000   0.00020  -0.00003  -0.00003
  15 3   F  1S         -0.00006   0.40605  -0.06842  -0.68782   0.13010
  16        2S          0.00044   0.00935  -0.00154  -0.01544   0.00292
  17        2PX         0.00032   0.00125  -0.00018  -0.00183   0.00035
  18        2PY         0.00000   0.00000   0.00003   0.00004   0.00020
  19        2PZ         0.00000   0.00000   0.00020  -0.00003  -0.00003
  20 4   F  1S         -0.00006   0.40605   0.11196   0.11829   0.68423
  21        2S          0.00044   0.00935   0.00251   0.00266   0.01536
  22        2PX         0.00000   0.00000   0.00002   0.00020  -0.00004
  23        2PY        -0.00032  -0.00125  -0.00030  -0.00032  -0.00182
  24        2PZ         0.00000   0.00000   0.00020  -0.00003  -0.00003
  25 5   F  1S         -0.00006   0.40605  -0.11196  -0.11829  -0.68423
  26        2S          0.00044   0.00935  -0.00251  -0.00266  -0.01536
  27        2PX         0.00000   0.00000   0.00002   0.00020  -0.00004
  28        2PY         0.00032   0.00125  -0.00030  -0.00032  -0.00182
  29        2PZ         0.00000   0.00000   0.00020  -0.00003  -0.00003
  30 6   F  1S         -0.00006   0.40605   0.69100  -0.08727  -0.09798
  31        2S          0.00044   0.00935   0.01551  -0.00196  -0.00220
  32        2PX         0.00000   0.00000   0.00002   0.00020  -0.00004
  33        2PY         0.00000   0.00000   0.00003   0.00004   0.00020
  34        2PZ        -0.00032  -0.00125  -0.00184   0.00023   0.00026
  35 7   F  1S         -0.00006   0.40605  -0.69100   0.08727   0.09798
  36        2S          0.00044   0.00935  -0.01551   0.00196   0.00220
  37        2PX         0.00000   0.00000   0.00002   0.00020  -0.00004
  38        2PY         0.00000   0.00000   0.00003   0.00004   0.00020
  39        2PZ         0.00032   0.00125  -0.00184   0.00023   0.00026
                           6         7         8         9        10
                           O         O         O         O         O
     Eigenvalues --   -25.92124 -25.92124  -9.26825  -6.90393  -6.90393
   1 1   S  1S          0.00000   0.00000  -0.36709   0.00000   0.00000
   2        2S          0.00000   0.00000   1.04626   0.00000   0.00000
   3        2PX         0.00000   0.00000   0.00000  -0.28351   0.09577
   4        2PY         0.00000   0.00000   0.00000   0.93466   0.15672
   5        2PZ         0.00000   0.00000   0.00000  -0.12337   0.96719
   6        3S          0.00000   0.00000   0.05583   0.00000   0.00000
   7        3PX         0.00000   0.00000   0.00000  -0.01652   0.00558
   8        3PY         0.00000   0.00000   0.00000   0.05446   0.00913
   9        3PZ         0.00000   0.00000   0.00000  -0.00719   0.05636
  10 2   F  1S         -0.31719  -0.47893   0.00094  -0.00033   0.00011
  11        2S         -0.00649  -0.00981  -0.00722   0.00310  -0.00105
  12        2PX         0.00038   0.00057   0.00430  -0.00165   0.00056
  13        2PY         0.00000   0.00000   0.00000  -0.00273  -0.00046
  14        2PZ         0.00000   0.00000   0.00000   0.00036  -0.00282
  15 3   F  1S         -0.31719  -0.47893   0.00094   0.00033  -0.00011
  16        2S         -0.00649  -0.00981  -0.00722  -0.00310   0.00105
  17        2PX        -0.00038  -0.00057  -0.00430  -0.00165   0.00056
  18        2PY         0.00000   0.00000   0.00000  -0.00273  -0.00046
  19        2PZ         0.00000   0.00000   0.00000   0.00036  -0.00282
  20 4   F  1S         -0.25616   0.51416   0.00094   0.00110   0.00018
  21        2S         -0.00525   0.01053  -0.00722  -0.01023  -0.00171
  22        2PX         0.00000   0.00000   0.00000   0.00083  -0.00028
  23        2PY         0.00030  -0.00061   0.00430   0.00543   0.00091
  24        2PZ         0.00000   0.00000   0.00000   0.00036  -0.00282
  25 5   F  1S         -0.25616   0.51416   0.00094  -0.00110  -0.00018
  26        2S         -0.00525   0.01053  -0.00722   0.01023   0.00171
  27        2PX         0.00000   0.00000   0.00000   0.00083  -0.00028
  28        2PY        -0.00030   0.00061  -0.00430   0.00543   0.00091
  29        2PZ         0.00000   0.00000   0.00000   0.00036  -0.00282
  30 6   F  1S          0.57336  -0.03524   0.00094  -0.00015   0.00114
  31        2S          0.01174  -0.00072  -0.00722   0.00135  -0.01058
  32        2PX         0.00000   0.00000   0.00000   0.00083  -0.00028
  33        2PY         0.00000   0.00000   0.00000  -0.00273  -0.00046
  34        2PZ        -0.00068   0.00004   0.00430  -0.00072   0.00561
  35 7   F  1S          0.57336  -0.03524   0.00094   0.00015  -0.00114
  36        2S          0.01174  -0.00072  -0.00722  -0.00135   0.01058
  37        2PX         0.00000   0.00000   0.00000   0.00083  -0.00028
  38        2PY         0.00000   0.00000   0.00000  -0.00273  -0.00046
  39        2PZ         0.00068  -0.00004  -0.00430  -0.00072   0.00561
                          11        12        13        14        15
                           O         O         O         O         O
     Eigenvalues --    -6.90393  -1.69647  -1.55797  -1.55797  -1.55797
   1 1   S  1S          0.00000   0.04742   0.00000   0.00000   0.00000
   2        2S          0.00000  -0.16129   0.00000   0.00000   0.00000
   3        2PX         0.93789   0.00000  -0.00817  -0.04061  -0.07302
   4        2PY         0.26654   0.00000  -0.01336  -0.07179   0.04142
   5        2PZ        -0.13605   0.00000  -0.08248   0.01565   0.00052
   6        3S          0.00000   0.42199   0.00000   0.00000   0.00000
   7        3PX         0.05465   0.00000   0.02012   0.10005   0.17992
   8        3PY         0.01553   0.00000   0.03293   0.17689  -0.10204
   9        3PZ        -0.00793   0.00000   0.20322  -0.03857  -0.00128
  10 2   F  1S          0.00111  -0.08248  -0.01672  -0.08313  -0.14949
  11        2S         -0.01026   0.29262   0.06280   0.31225   0.56153
  12        2PX         0.00544  -0.05573  -0.00770  -0.03827  -0.06882
  13        2PY        -0.00078   0.00000   0.00225   0.01211  -0.00699
  14        2PZ         0.00040   0.00000   0.01391  -0.00264  -0.00009
  15 3   F  1S         -0.00111  -0.08248   0.01672   0.08313   0.14949
  16        2S          0.01026   0.29262  -0.06280  -0.31225  -0.56153
  17        2PX         0.00544   0.05573  -0.00770  -0.03827  -0.06882
  18        2PY        -0.00078   0.00000   0.00225   0.01211  -0.00699
  19        2PZ         0.00040   0.00000   0.01391  -0.00264  -0.00009
  20 4   F  1S          0.00031  -0.08248  -0.02736  -0.14697   0.08478
  21        2S         -0.00292   0.29262   0.10277   0.55206  -0.31847
  22        2PX        -0.00274   0.00000   0.00138   0.00685   0.01232
  23        2PY         0.00155  -0.05573  -0.01260  -0.06766   0.03903
  24        2PZ         0.00040   0.00000   0.01391  -0.00264  -0.00009
  25 5   F  1S         -0.00031  -0.08248   0.02736   0.14697  -0.08478
  26        2S          0.00292   0.29262  -0.10277  -0.55206   0.31847
  27        2PX        -0.00274   0.00000   0.00138   0.00685   0.01232
  28        2PY         0.00155   0.05573  -0.01260  -0.06766   0.03903
  29        2PZ         0.00040   0.00000   0.01391  -0.00264  -0.00009
  30 6   F  1S         -0.00016  -0.08248  -0.16884   0.03204   0.00106
  31        2S          0.00149   0.29262   0.63424  -0.12037  -0.00400
  32        2PX        -0.00274   0.00000   0.00138   0.00685   0.01232
  33        2PY        -0.00078   0.00000   0.00225   0.01211  -0.00699
  34        2PZ        -0.00079  -0.05573  -0.07773   0.01475   0.00049
  35 7   F  1S          0.00016  -0.08248   0.16884  -0.03204  -0.00106
  36        2S         -0.00149   0.29262  -0.63424   0.12037   0.00400
  37        2PX        -0.00274   0.00000   0.00138   0.00685   0.01232
  38        2PY        -0.00078   0.00000   0.00225   0.01211  -0.00699
  39        2PZ        -0.00079   0.05573  -0.07773   0.01475   0.00049
                          16        17        18        19        20
                           O         O         O         O         O
     Eigenvalues --    -1.49125  -1.49125  -0.95985  -0.75408  -0.75408
   1 1   S  1S          0.00000   0.00000   0.06913   0.00000   0.00000
   2        2S          0.00000   0.00000  -0.23310   0.00000   0.00000
   3        2PX         0.00000   0.00000   0.00000  -0.01829  -0.12347
   4        2PY         0.00000   0.00000   0.00000  -0.02994  -0.13769
   5        2PZ         0.00000   0.00000   0.00000  -0.18484   0.03452
   6        3S          0.00000   0.00000   0.75398   0.00000   0.00000
   7        3PX         0.00000   0.00000   0.00000   0.05744   0.38772
   8        3PY         0.00000   0.00000   0.00000   0.09401   0.43237
   9        3PZ         0.00000   0.00000   0.00000   0.58042  -0.10840
  10 2   F  1S          0.08509   0.12744   0.07093   0.00704   0.04750
  11        2S         -0.33115  -0.49594  -0.32656  -0.03391  -0.22894
  12        2PX         0.03129   0.04687  -0.15724  -0.03417  -0.23065
  13        2PY         0.00000   0.00000   0.00000   0.03049   0.14022
  14        2PZ         0.00000   0.00000   0.00000   0.18824  -0.03515
  15 3   F  1S          0.08509   0.12744   0.07093  -0.00704  -0.04750
  16        2S         -0.33115  -0.49594  -0.32656   0.03391   0.22894
  17        2PX        -0.03129  -0.04687   0.15724  -0.03417  -0.23065
  18        2PY         0.00000   0.00000   0.00000   0.03049   0.14022
  19        2PZ         0.00000   0.00000   0.00000   0.18824  -0.03515
  20 4   F  1S          0.06782  -0.13741   0.07093   0.01152   0.05297
  21        2S         -0.26393   0.53475  -0.32656  -0.05551  -0.25531
  22        2PX         0.00000   0.00000   0.00000   0.01863   0.12574
  23        2PY         0.02494  -0.05053  -0.15724  -0.05592  -0.25722
  24        2PZ         0.00000   0.00000   0.00000   0.18824  -0.03515
  25 5   F  1S          0.06782  -0.13741   0.07093  -0.01152  -0.05297
  26        2S         -0.26393   0.53475  -0.32656   0.05551   0.25531
  27        2PX         0.00000   0.00000   0.00000   0.01863   0.12574
  28        2PY        -0.02494   0.05053   0.15724  -0.05592  -0.25722
  29        2PZ         0.00000   0.00000   0.00000   0.18824  -0.03515
  30 6   F  1S         -0.15291   0.00997   0.07093   0.07111  -0.01328
  31        2S          0.59507  -0.03881  -0.32656  -0.34272   0.06401
  32        2PX         0.00000   0.00000   0.00000   0.01863   0.12574
  33        2PY         0.00000   0.00000   0.00000   0.03049   0.14022
  34        2PZ        -0.05623   0.00367  -0.15724  -0.34529   0.06448
  35 7   F  1S         -0.15291   0.00997   0.07093  -0.07111   0.01328
  36        2S          0.59507  -0.03881  -0.32656   0.34272  -0.06401
  37        2PX         0.00000   0.00000   0.00000   0.01863   0.12574
  38        2PY         0.00000   0.00000   0.00000   0.03049   0.14022
  39        2PZ         0.05623  -0.00367   0.15724  -0.34529   0.06448
                          21        22        23        24        25
                           O         O         O         O         O
     Eigenvalues --    -0.75408  -0.56334  -0.56334  -0.56334  -0.51842
   1 1   S  1S          0.00000   0.00000   0.00000   0.00000   0.00000
   2        2S          0.00000   0.00000   0.00000   0.00000   0.00000
   3        2PX        -0.14077   0.00000   0.00000   0.00000   0.00000
   4        2PY         0.12466   0.00000   0.00000   0.00000   0.00000
   5        2PZ        -0.00626   0.00000   0.00000   0.00000   0.00000
   6        3S          0.00000   0.00000   0.00000   0.00000   0.00000
   7        3PX         0.44204   0.00000   0.00000   0.00000   0.00000
   8        3PY        -0.39146   0.00000   0.00000   0.00000   0.00000
   9        3PZ         0.01966   0.00000   0.00000   0.00000   0.00000
  10 2   F  1S          0.05416   0.00000   0.00000   0.00000   0.00000
  11        2S         -0.26101   0.00000   0.00000   0.00000   0.00000
  12        2PX        -0.26297   0.00000   0.00000   0.00000   0.00000
  13        2PY        -0.12695   0.02334   0.02267   0.49375  -0.09436
  14        2PZ         0.00638   0.00366   0.49427  -0.02287  -0.07236
  15 3   F  1S         -0.05416   0.00000   0.00000   0.00000   0.00000
  16        2S          0.26101   0.00000   0.00000   0.00000   0.00000
  17        2PX        -0.26297   0.00000   0.00000   0.00000   0.00000
  18        2PY        -0.12695  -0.02334  -0.02267  -0.49375  -0.09436
  19        2PZ         0.00638  -0.00366  -0.49427   0.02287  -0.07236
  20 4   F  1S         -0.04796   0.00000   0.00000   0.00000   0.00000
  21        2S          0.23115   0.00000   0.00000   0.00000   0.00000
  22        2PX         0.14336   0.02334   0.02267   0.49375   0.48676
  23        2PY         0.23288   0.00000   0.00000   0.00000   0.00000
  24        2PZ         0.00638   0.49425  -0.00473  -0.02315   0.07236
  25 5   F  1S          0.04796   0.00000   0.00000   0.00000   0.00000
  26        2S         -0.23115   0.00000   0.00000   0.00000   0.00000
  27        2PX         0.14336  -0.02334  -0.02267  -0.49375   0.48676
  28        2PY         0.23288   0.00000   0.00000   0.00000   0.00000
  29        2PZ         0.00638  -0.49425   0.00473   0.02315   0.07236
  30 6   F  1S          0.00241   0.00000   0.00000   0.00000   0.00000
  31        2S         -0.01161   0.00000   0.00000   0.00000   0.00000
  32        2PX         0.14336   0.00366   0.49427  -0.02287  -0.48676
  33        2PY        -0.12695   0.49425  -0.00473  -0.02315   0.09436
  34        2PZ        -0.01170   0.00000   0.00000   0.00000   0.00000
  35 7   F  1S         -0.00241   0.00000   0.00000   0.00000   0.00000
  36        2S          0.01161   0.00000   0.00000   0.00000   0.00000
  37        2PX         0.14336  -0.00366  -0.49427   0.02287  -0.48676
  38        2PY        -0.12695  -0.49425   0.00473   0.02315   0.09436
  39        2PZ        -0.01170   0.00000   0.00000   0.00000   0.00000
                          26        27        28        29        30
                           O         O         O         O         O
     Eigenvalues --    -0.51842  -0.51842  -0.48888  -0.48888  -0.48888
   1 1   S  1S          0.00000   0.00000   0.00000   0.00000   0.00000
   2        2S          0.00000   0.00000   0.00000   0.00000   0.00000
   3        2PX         0.00000   0.00000   0.00000   0.00000   0.00000
   4        2PY         0.00000   0.00000   0.00000   0.00000   0.00000
   5        2PZ         0.00000   0.00000   0.00000   0.00000   0.00000
   6        3S          0.00000   0.00000   0.00000   0.00000   0.00000
   7        3PX         0.00000   0.00000   0.00000   0.00000   0.00000
   8        3PY         0.00000   0.00000   0.00000   0.00000   0.00000
   9        3PZ         0.00000   0.00000   0.00000   0.00000   0.00000
  10 2   F  1S          0.00000   0.00000   0.00000   0.00000   0.00000
  11        2S          0.00000   0.00000   0.00000   0.00000   0.00000
  12        2PX         0.00000   0.00000   0.00000   0.00000   0.00000
  13        2PY         0.45342   0.19126  -0.03497  -0.05249   0.50141
  14        2PZ        -0.20541   0.45127  -0.08836   0.49547   0.04571
  15 3   F  1S          0.00000   0.00000   0.00000   0.00000   0.00000
  16        2S          0.00000   0.00000   0.00000   0.00000   0.00000
  17        2PX         0.00000   0.00000   0.00000   0.00000   0.00000
  18        2PY         0.45342   0.19126   0.03497   0.05249  -0.50141
  19        2PZ        -0.20541   0.45127   0.08836  -0.49547  -0.04571
  20 4   F  1S          0.00000   0.00000   0.00000   0.00000   0.00000
  21        2S          0.00000   0.00000   0.00000   0.00000   0.00000
  22        2PX         0.05736   0.10416   0.03497   0.05249  -0.50141
  23        2PY         0.00000   0.00000   0.00000   0.00000   0.00000
  24        2PZ         0.20541  -0.45127   0.49635   0.08451   0.04346
  25 5   F  1S          0.00000   0.00000   0.00000   0.00000   0.00000
  26        2S          0.00000   0.00000   0.00000   0.00000   0.00000
  27        2PX         0.05736   0.10416  -0.03497  -0.05249   0.50141
  28        2PY         0.00000   0.00000   0.00000   0.00000   0.00000
  29        2PZ         0.20541  -0.45127  -0.49635  -0.08451  -0.04346
  30 6   F  1S          0.00000   0.00000   0.00000   0.00000   0.00000
  31        2S          0.00000   0.00000   0.00000   0.00000   0.00000
  32        2PX        -0.05736  -0.10416   0.08836  -0.49547  -0.04571
  33        2PY        -0.45342  -0.19126  -0.49635  -0.08451  -0.04346
  34        2PZ         0.00000   0.00000   0.00000   0.00000   0.00000
  35 7   F  1S          0.00000   0.00000   0.00000   0.00000   0.00000
  36        2S          0.00000   0.00000   0.00000   0.00000   0.00000
  37        2PX        -0.05736  -0.10416  -0.08836   0.49547   0.04571
  38        2PY        -0.45342  -0.19126   0.49635   0.08451   0.04346
  39        2PZ         0.00000   0.00000   0.00000   0.00000   0.00000
                          31        32        33        34        35
                           O         O         O         O         O
     Eigenvalues --    -0.48753  -0.48753  -0.48753  -0.40949  -0.40949
   1 1   S  1S          0.00000   0.00000   0.00000   0.00000   0.00000
   2        2S          0.00000   0.00000   0.00000   0.00000   0.00000
   3        2PX        -0.03452   0.02889  -0.02624   0.00000   0.00000
   4        2PY         0.03892   0.02808  -0.02029   0.00000   0.00000
   5        2PZ        -0.00289   0.03304   0.04018   0.00000   0.00000
   6        3S          0.00000   0.00000   0.00000   0.00000   0.00000
   7        3PX         0.10104  -0.08457   0.07680   0.00000   0.00000
   8        3PY        -0.11392  -0.08218   0.05938   0.00000   0.00000
   9        3PZ         0.00845  -0.09671  -0.11762   0.00000   0.00000
  10 2   F  1S          0.00899  -0.00752   0.00683   0.00728   0.00947
  11        2S         -0.04652   0.03894  -0.03536  -0.02931  -0.03813
  12        2PX        -0.21099   0.17660  -0.16037  -0.35394  -0.46047
  13        2PY         0.33172   0.23930  -0.17291   0.00000   0.00000
  14        2PZ        -0.02462   0.28160   0.34249   0.00000   0.00000
  15 3   F  1S         -0.00899   0.00752  -0.00683   0.00728   0.00947
  16        2S          0.04652  -0.03894   0.03536  -0.02931  -0.03813
  17        2PX        -0.21099   0.17660  -0.16037   0.35394   0.46047
  18        2PY         0.33172   0.23930  -0.17291   0.00000   0.00000
  19        2PZ        -0.02462   0.28160   0.34249   0.00000   0.00000
  20 4   F  1S         -0.01013  -0.00731   0.00528  -0.01184   0.00157
  21        2S          0.05245   0.03784  -0.02734   0.04768  -0.00632
  22        2PX        -0.29421   0.24625  -0.22362   0.00000   0.00000
  23        2PY         0.23790   0.17162  -0.12400   0.57575  -0.07628
  24        2PZ        -0.02462   0.28160   0.34249   0.00000   0.00000
  25 5   F  1S          0.01013   0.00731  -0.00528  -0.01184   0.00157
  26        2S         -0.05245  -0.03784   0.02734   0.04768  -0.00632
  27        2PX        -0.29421   0.24625  -0.22362   0.00000   0.00000
  28        2PY         0.23790   0.17162  -0.12400  -0.57575   0.07628
  29        2PZ        -0.02462   0.28160   0.34249   0.00000   0.00000
  30 6   F  1S          0.00075  -0.00860  -0.01046   0.00456  -0.01104
  31        2S         -0.00389   0.04453   0.05415  -0.01837   0.04445
  32        2PX        -0.29421   0.24625  -0.22362   0.00000   0.00000
  33        2PY         0.33172   0.23930  -0.17291   0.00000   0.00000
  34        2PZ        -0.01766   0.20195   0.24562  -0.22181   0.53675
  35 7   F  1S         -0.00075   0.00860   0.01046   0.00456  -0.01104
  36        2S          0.00389  -0.04453  -0.05415  -0.01837   0.04445
  37        2PX        -0.29421   0.24625  -0.22362   0.00000   0.00000
  38        2PY         0.33172   0.23930  -0.17291   0.00000   0.00000
  39        2PZ        -0.01766   0.20195   0.24562   0.22181  -0.53675
                          36        37        38        39
                           V         V         V         V
     Eigenvalues --     0.31391   0.44241   0.44241   0.44241
   1 1   S  1S          0.07026   0.00000   0.00000   0.00000
   2        2S         -0.22909   0.00000   0.00000   0.00000
   3        2PX         0.00000  -0.00622  -0.20146  -0.19298
   4        2PY         0.00000  -0.02278   0.19275  -0.20049
   5        2PZ         0.00000  -0.27804  -0.01128   0.02074
   6        3S          0.97556   0.00000   0.00000   0.00000
   7        3PX         0.00000   0.02350   0.76158   0.72952
   8        3PY         0.00000   0.08610  -0.72865   0.75790
   9        3PZ         0.00000   1.05109   0.04266  -0.07839
  10 2   F  1S          0.03147   0.00120   0.03890   0.03727
  11        2S         -0.18534  -0.00725  -0.23482  -0.22493
  12        2PX         0.41673   0.01319   0.42745   0.40946
  13        2PY         0.00000  -0.01250   0.10583  -0.11008
  14        2PZ         0.00000  -0.15266  -0.00620   0.01139
  15 3   F  1S          0.03147  -0.00120  -0.03890  -0.03727
  16        2S         -0.18534   0.00725   0.23482   0.22493
  17        2PX        -0.41673   0.01319   0.42745   0.40946
  18        2PY         0.00000  -0.01250   0.10583  -0.11008
  19        2PZ         0.00000  -0.15266  -0.00620   0.01139
  20 4   F  1S          0.03147   0.00440  -0.03722   0.03872
  21        2S         -0.18534  -0.02655   0.22467  -0.23368
  22        2PX         0.00000  -0.00341  -0.11061  -0.10595
  23        2PY         0.41673   0.04832  -0.40897   0.42538
  24        2PZ         0.00000  -0.15266  -0.00620   0.01139
  25 5   F  1S          0.03147  -0.00440   0.03722  -0.03872
  26        2S         -0.18534   0.02655  -0.22467   0.23368
  27        2PX         0.00000  -0.00341  -0.11061  -0.10595
  28        2PY        -0.41673   0.04832  -0.40897   0.42538
  29        2PZ         0.00000  -0.15266  -0.00620   0.01139
  30 6   F  1S          0.03147   0.05369   0.00218  -0.00400
  31        2S         -0.18534  -0.32408  -0.01315   0.02417
  32        2PX         0.00000  -0.00341  -0.11061  -0.10595
  33        2PY         0.00000  -0.01250   0.10583  -0.11008
  34        2PZ         0.41673   0.58994   0.02394  -0.04400
  35 7   F  1S          0.03147  -0.05369  -0.00218   0.00400
  36        2S         -0.18534   0.32408   0.01315  -0.02417
  37        2PX         0.00000  -0.00341  -0.11061  -0.10595
  38        2PY         0.00000  -0.01250   0.10583  -0.11008
  39        2PZ        -0.41673   0.58994   0.02394  -0.04400
     Density Matrix:
                           1         2         3         4         5
   1 1   S  1S          2.26034
   2        2S         -0.78167   2.35062
   3        2PX         0.00000   0.00000   2.02868
   4        2PY         0.00000   0.00000   0.00000   2.02868
   5        2PZ         0.00000   0.00000   0.00000   0.00000   2.02868
   6        3S          0.09759  -0.37092   0.00000   0.00000   0.00000
   7        3PX         0.00000   0.00000  -0.15999   0.00000   0.00000
   8        3PY         0.00000   0.00000   0.00000  -0.15999   0.00000
   9        3PZ         0.00000   0.00000   0.00000   0.00000  -0.15999
  10 2   F  1S          0.00086  -0.00348   0.00401   0.00000   0.00000
  11        2S         -0.01122   0.04278   0.00901   0.00000   0.00000
  12        2PX        -0.03082   0.10026   0.18996   0.00000   0.00000
  13        2PY         0.00000   0.00000   0.00000  -0.03386   0.00000
  14        2PZ         0.00000   0.00000   0.00000   0.00000  -0.03386
  15 3   F  1S          0.00086  -0.00348  -0.00401   0.00000   0.00000
  16        2S         -0.01122   0.04278  -0.00901   0.00000   0.00000
  17        2PX         0.03082  -0.10026   0.18996   0.00000   0.00000
  18        2PY         0.00000   0.00000   0.00000  -0.03386   0.00000
  19        2PZ         0.00000   0.00000   0.00000   0.00000  -0.03386
  20 4   F  1S          0.00086  -0.00348   0.00000   0.00401   0.00000
  21        2S         -0.01122   0.04278   0.00000   0.00901   0.00000
  22        2PX         0.00000   0.00000  -0.03386   0.00000   0.00000
  23        2PY        -0.03082   0.10026   0.00000   0.18996   0.00000
  24        2PZ         0.00000   0.00000   0.00000   0.00000  -0.03386
  25 5   F  1S          0.00086  -0.00348   0.00000  -0.00401   0.00000
  26        2S         -0.01122   0.04278   0.00000  -0.00901   0.00000
  27        2PX         0.00000   0.00000  -0.03386   0.00000   0.00000
  28        2PY         0.03082  -0.10026   0.00000   0.18996   0.00000
  29        2PZ         0.00000   0.00000   0.00000   0.00000  -0.03386
  30 6   F  1S          0.00086  -0.00348   0.00000   0.00000   0.00401
  31        2S         -0.01122   0.04278   0.00000   0.00000   0.00901
  32        2PX         0.00000   0.00000  -0.03386   0.00000   0.00000
  33        2PY         0.00000   0.00000   0.00000  -0.03386   0.00000
  34        2PZ        -0.03082   0.10026   0.00000   0.00000   0.18996
  35 7   F  1S          0.00086  -0.00348   0.00000   0.00000  -0.00401
  36        2S         -0.01122   0.04278   0.00000   0.00000  -0.00901
  37        2PX         0.00000   0.00000  -0.03386   0.00000   0.00000
  38        2PY         0.00000   0.00000   0.00000  -0.03386   0.00000
  39        2PZ         0.03082  -0.10026   0.00000   0.00000   0.18996
                           6         7         8         9        10
   6        3S          1.49949
   7        3PX         0.00000   0.83678
   8        3PY         0.00000   0.00000   0.83678
   9        3PZ         0.00000   0.00000   0.00000   0.83678
  10 2   F  1S          0.03136   0.01073   0.00000   0.00000   2.11997
  11        2S         -0.24643  -0.16794   0.00000   0.00000  -0.50953
  12        2PX        -0.28364  -0.54446   0.00000   0.00000  -0.04645
  13        2PY         0.00000   0.00000   0.09646   0.00000   0.00000
  14        2PZ         0.00000   0.00000   0.00000   0.09646   0.00000
  15 3   F  1S          0.03136  -0.01073   0.00000   0.00000   0.00131
  16        2S         -0.24643   0.16794   0.00000   0.00000  -0.00530
  17        2PX         0.28364  -0.54446   0.00000   0.00000  -0.02343
  18        2PY         0.00000   0.00000   0.09646   0.00000   0.00000
  19        2PZ         0.00000   0.00000   0.00000   0.09646   0.00000
  20 4   F  1S          0.03136   0.00000   0.01073   0.00000  -0.00017
  21        2S         -0.24643   0.00000  -0.16794   0.00000  -0.00183
  22        2PX         0.00000   0.09646   0.00000   0.00000   0.01111
  23        2PY        -0.28364   0.00000  -0.54446   0.00000  -0.01543
  24        2PZ         0.00000   0.00000   0.00000   0.09646   0.00000
  25 5   F  1S          0.03136   0.00000  -0.01073   0.00000  -0.00017
  26        2S         -0.24643   0.00000   0.16794   0.00000  -0.00183
  27        2PX         0.00000   0.09646   0.00000   0.00000   0.01111
  28        2PY         0.28364   0.00000  -0.54446   0.00000   0.01543
  29        2PZ         0.00000   0.00000   0.00000   0.09646   0.00000
  30 6   F  1S          0.03136   0.00000   0.00000   0.01073  -0.00017
  31        2S         -0.24643   0.00000   0.00000  -0.16794  -0.00183
  32        2PX         0.00000   0.09646   0.00000   0.00000   0.01111
  33        2PY         0.00000   0.00000   0.09646   0.00000   0.00000
  34        2PZ        -0.28364   0.00000   0.00000  -0.54446  -0.01543
  35 7   F  1S          0.03136   0.00000   0.00000  -0.01073  -0.00017
  36        2S         -0.24643   0.00000   0.00000   0.16794  -0.00183
  37        2PX         0.00000   0.09646   0.00000   0.00000   0.01111
  38        2PY         0.00000   0.00000   0.09646   0.00000   0.00000
  39        2PZ         0.28364   0.00000   0.00000  -0.54446   0.01543
                          11        12        13        14        15
  11        2S          2.18844
  12        2PX         0.24622   1.19914
  13        2PY         0.00000   0.00000   1.97086
  14        2PZ         0.00000   0.00000   0.00000   1.97086
  15 3   F  1S         -0.00530   0.02343   0.00000   0.00000   2.11997
  16        2S          0.01346  -0.12895   0.00000   0.00000  -0.50953
  17        2PX         0.12895  -0.27418   0.00000   0.00000   0.04645
  18        2PY         0.00000   0.00000  -0.03007   0.00000   0.00000
  19        2PZ         0.00000   0.00000   0.00000  -0.03007   0.00000
  20 4   F  1S         -0.00183  -0.01543   0.01111   0.00000  -0.00017
  21        2S          0.02674   0.07567  -0.05296   0.00000  -0.00183
  22        2PX        -0.05296   0.14590  -0.02109   0.00000  -0.01111
  23        2PY         0.07567  -0.28478   0.14590   0.00000  -0.01543
  24        2PZ         0.00000   0.00000   0.00000  -0.03392   0.00000
  25 5   F  1S         -0.00183  -0.01543  -0.01111   0.00000  -0.00017
  26        2S          0.02674   0.07567   0.05296   0.00000  -0.00183
  27        2PX        -0.05296   0.14590   0.02109   0.00000  -0.01111
  28        2PY        -0.07567   0.28478   0.14590   0.00000   0.01543
  29        2PZ         0.00000   0.00000   0.00000  -0.03392   0.00000
  30 6   F  1S         -0.00183  -0.01543   0.00000   0.01111  -0.00017
  31        2S          0.02674   0.07567   0.00000  -0.05296  -0.00183
  32        2PX        -0.05296   0.14590   0.00000  -0.02109  -0.01111
  33        2PY         0.00000   0.00000  -0.03392   0.00000   0.00000
  34        2PZ         0.07567  -0.28478   0.00000   0.14590  -0.01543
  35 7   F  1S         -0.00183  -0.01543   0.00000  -0.01111  -0.00017
  36        2S          0.02674   0.07567   0.00000   0.05296  -0.00183
  37        2PX        -0.05296   0.14590   0.00000   0.02109  -0.01111
  38        2PY         0.00000   0.00000  -0.03392   0.00000   0.00000
  39        2PZ        -0.07567   0.28478   0.00000   0.14590   0.01543
                          16        17        18        19        20
  16        2S          2.18844
  17        2PX        -0.24622   1.19914
  18        2PY         0.00000   0.00000   1.97086
  19        2PZ         0.00000   0.00000   0.00000   1.97086
  20 4   F  1S         -0.00183   0.01543   0.01111   0.00000   2.11997
  21        2S          0.02674  -0.07567  -0.05296   0.00000  -0.50953
  22        2PX         0.05296   0.14590   0.02109   0.00000   0.00000
  23        2PY         0.07567   0.28478   0.14590   0.00000  -0.04645
  24        2PZ         0.00000   0.00000   0.00000  -0.03392   0.00000
  25 5   F  1S         -0.00183   0.01543  -0.01111   0.00000   0.00131
  26        2S          0.02674  -0.07567   0.05296   0.00000  -0.00530
  27        2PX         0.05296   0.14590  -0.02109   0.00000   0.00000
  28        2PY        -0.07567  -0.28478   0.14590   0.00000  -0.02343
  29        2PZ         0.00000   0.00000   0.00000  -0.03392   0.00000
  30 6   F  1S         -0.00183   0.01543   0.00000   0.01111  -0.00017
  31        2S          0.02674  -0.07567   0.00000  -0.05296  -0.00183
  32        2PX         0.05296   0.14590   0.00000   0.02109   0.00000
  33        2PY         0.00000   0.00000  -0.03392   0.00000   0.01111
  34        2PZ         0.07567   0.28478   0.00000   0.14590  -0.01543
  35 7   F  1S         -0.00183   0.01543   0.00000  -0.01111  -0.00017
  36        2S          0.02674  -0.07567   0.00000   0.05296  -0.00183
  37        2PX         0.05296   0.14590   0.00000  -0.02109   0.00000
  38        2PY         0.00000   0.00000  -0.03392   0.00000   0.01111
  39        2PZ        -0.07567  -0.28478   0.00000   0.14590   0.01543
                          21        22        23        24        25
  21        2S          2.18844
  22        2PX         0.00000   1.97086
  23        2PY         0.24622   0.00000   1.19914
  24        2PZ         0.00000   0.00000   0.00000   1.97086
  25 5   F  1S         -0.00530   0.00000   0.02343   0.00000   2.11997
  26        2S          0.01346   0.00000  -0.12895   0.00000  -0.50953
  27        2PX         0.00000  -0.03007   0.00000   0.00000   0.00000
  28        2PY         0.12895   0.00000  -0.27418   0.00000   0.04645
  29        2PZ         0.00000   0.00000   0.00000  -0.03007   0.00000
  30 6   F  1S         -0.00183   0.00000  -0.01543   0.01111  -0.00017
  31        2S          0.02674   0.00000   0.07567  -0.05296  -0.00183
  32        2PX         0.00000  -0.03392   0.00000   0.00000   0.00000
  33        2PY        -0.05296   0.00000   0.14590  -0.02109  -0.01111
  34        2PZ         0.07567   0.00000  -0.28478   0.14590  -0.01543
  35 7   F  1S         -0.00183   0.00000  -0.01543  -0.01111  -0.00017
  36        2S          0.02674   0.00000   0.07567   0.05296  -0.00183
  37        2PX         0.00000  -0.03392   0.00000   0.00000   0.00000
  38        2PY        -0.05296   0.00000   0.14590   0.02109  -0.01111
  39        2PZ        -0.07567   0.00000   0.28478   0.14590   0.01543
                          26        27        28        29        30
  26        2S          2.18844
  27        2PX         0.00000   1.97086
  28        2PY        -0.24622   0.00000   1.19914
  29        2PZ         0.00000   0.00000   0.00000   1.97086
  30 6   F  1S         -0.00183   0.00000   0.01543   0.01111   2.11997
  31        2S          0.02674   0.00000  -0.07567  -0.05296  -0.50953
  32        2PX         0.00000  -0.03392   0.00000   0.00000   0.00000
  33        2PY         0.05296   0.00000   0.14590   0.02109   0.00000
  34        2PZ         0.07567   0.00000   0.28478   0.14590  -0.04645
  35 7   F  1S         -0.00183   0.00000   0.01543  -0.01111   0.00131
  36        2S          0.02674   0.00000  -0.07567   0.05296  -0.00530
  37        2PX         0.00000  -0.03392   0.00000   0.00000   0.00000
  38        2PY         0.05296   0.00000   0.14590  -0.02109   0.00000
  39        2PZ        -0.07567   0.00000  -0.28478   0.14590  -0.02343
                          31        32        33        34        35
  31        2S          2.18844
  32        2PX         0.00000   1.97086
  33        2PY         0.00000   0.00000   1.97086
  34        2PZ         0.24622   0.00000   0.00000   1.19914
  35 7   F  1S         -0.00530   0.00000   0.00000   0.02343   2.11997
  36        2S          0.01346   0.00000   0.00000  -0.12895  -0.50953
  37        2PX         0.00000  -0.03007   0.00000   0.00000   0.00000
  38        2PY         0.00000   0.00000  -0.03007   0.00000   0.00000
  39        2PZ         0.12895   0.00000   0.00000  -0.27418   0.04645
                          36        37        38        39
  36        2S          2.18844
  37        2PX         0.00000   1.97086
  38        2PY         0.00000   0.00000   1.97086
  39        2PZ        -0.24622   0.00000   0.00000   1.19914
    Full Mulliken population analysis:
                           1         2         3         4         5
   1 1   S  1S          2.26034
   2        2S         -0.26227   2.35062
   3        2PX         0.00000   0.00000   2.02868
   4        2PY         0.00000   0.00000   0.00000   2.02868
   5        2PZ         0.00000   0.00000   0.00000   0.00000   2.02868
   6        3S          0.00139  -0.09017   0.00000   0.00000   0.00000
   7        3PX         0.00000   0.00000  -0.04117   0.00000   0.00000
   8        3PY         0.00000   0.00000   0.00000  -0.04117   0.00000
   9        3PZ         0.00000   0.00000   0.00000   0.00000  -0.04117
  10 2   F  1S          0.00000   0.00000   0.00000   0.00000   0.00000
  11        2S         -0.00001   0.00037   0.00008   0.00000   0.00000
  12        2PX         0.00006  -0.00178  -0.00303   0.00000   0.00000
  13        2PY         0.00000   0.00000   0.00000  -0.00008   0.00000
  14        2PZ         0.00000   0.00000   0.00000   0.00000  -0.00008
  15 3   F  1S          0.00000   0.00000   0.00000   0.00000   0.00000
  16        2S         -0.00001   0.00037   0.00008   0.00000   0.00000
  17        2PX         0.00006  -0.00178  -0.00303   0.00000   0.00000
  18        2PY         0.00000   0.00000   0.00000  -0.00008   0.00000
  19        2PZ         0.00000   0.00000   0.00000   0.00000  -0.00008
  20 4   F  1S          0.00000   0.00000   0.00000   0.00000   0.00000
  21        2S         -0.00001   0.00037   0.00000   0.00008   0.00000
  22        2PX         0.00000   0.00000  -0.00008   0.00000   0.00000
  23        2PY         0.00006  -0.00178   0.00000  -0.00303   0.00000
  24        2PZ         0.00000   0.00000   0.00000   0.00000  -0.00008
  25 5   F  1S          0.00000   0.00000   0.00000   0.00000   0.00000
  26        2S         -0.00001   0.00037   0.00000   0.00008   0.00000
  27        2PX         0.00000   0.00000  -0.00008   0.00000   0.00000
  28        2PY         0.00006  -0.00178   0.00000  -0.00303   0.00000
  29        2PZ         0.00000   0.00000   0.00000   0.00000  -0.00008
  30 6   F  1S          0.00000   0.00000   0.00000   0.00000   0.00000
  31        2S         -0.00001   0.00037   0.00000   0.00000   0.00008
  32        2PX         0.00000   0.00000  -0.00008   0.00000   0.00000
  33        2PY         0.00000   0.00000   0.00000  -0.00008   0.00000
  34        2PZ         0.00006  -0.00178   0.00000   0.00000  -0.00303
  35 7   F  1S          0.00000   0.00000   0.00000   0.00000   0.00000
  36        2S         -0.00001   0.00037   0.00000   0.00000   0.00008
  37        2PX         0.00000   0.00000  -0.00008   0.00000   0.00000
  38        2PY         0.00000   0.00000   0.00000  -0.00008   0.00000
  39        2PZ         0.00006  -0.00178   0.00000   0.00000  -0.00303
                           6         7         8         9        10
   6        3S          1.49949
   7        3PX         0.00000   0.83678
   8        3PY         0.00000   0.00000   0.83678
   9        3PZ         0.00000   0.00000   0.00000   0.83678
  10 2   F  1S          0.00048   0.00028   0.00000   0.00000   2.11997
  11        2S         -0.04523  -0.04596   0.00000   0.00000  -0.12126
  12        2PX         0.04878   0.12869   0.00000   0.00000   0.00000
  13        2PY         0.00000   0.00000   0.00802   0.00000   0.00000
  14        2PZ         0.00000   0.00000   0.00000   0.00802   0.00000
  15 3   F  1S          0.00048   0.00028   0.00000   0.00000   0.00000
  16        2S         -0.04523  -0.04596   0.00000   0.00000   0.00000
  17        2PX         0.04878   0.12869   0.00000   0.00000   0.00000
  18        2PY         0.00000   0.00000   0.00802   0.00000   0.00000
  19        2PZ         0.00000   0.00000   0.00000   0.00802   0.00000
  20 4   F  1S          0.00048   0.00000   0.00028   0.00000   0.00000
  21        2S         -0.04523   0.00000  -0.04596   0.00000   0.00000
  22        2PX         0.00000   0.00802   0.00000   0.00000   0.00000
  23        2PY         0.04878   0.00000   0.12869   0.00000   0.00000
  24        2PZ         0.00000   0.00000   0.00000   0.00802   0.00000
  25 5   F  1S          0.00048   0.00000   0.00028   0.00000   0.00000
  26        2S         -0.04523   0.00000  -0.04596   0.00000   0.00000
  27        2PX         0.00000   0.00802   0.00000   0.00000   0.00000
  28        2PY         0.04878   0.00000   0.12869   0.00000   0.00000
  29        2PZ         0.00000   0.00000   0.00000   0.00802   0.00000
  30 6   F  1S          0.00048   0.00000   0.00000   0.00028   0.00000
  31        2S         -0.04523   0.00000   0.00000  -0.04596   0.00000
  32        2PX         0.00000   0.00802   0.00000   0.00000   0.00000
  33        2PY         0.00000   0.00000   0.00802   0.00000   0.00000
  34        2PZ         0.04878   0.00000   0.00000   0.12869   0.00000
  35 7   F  1S          0.00048   0.00000   0.00000   0.00028   0.00000
  36        2S         -0.04523   0.00000   0.00000  -0.04596   0.00000
  37        2PX         0.00000   0.00802   0.00000   0.00000   0.00000
  38        2PY         0.00000   0.00000   0.00802   0.00000   0.00000
  39        2PZ         0.04878   0.00000   0.00000   0.12869   0.00000
                          11        12        13        14        15
  11        2S          2.18844
  12        2PX         0.00000   1.19914
  13        2PY         0.00000   0.00000   1.97086
  14        2PZ         0.00000   0.00000   0.00000   1.97086
  15 3   F  1S          0.00000   0.00000   0.00000   0.00000   2.11997
  16        2S          0.00000   0.00002   0.00000   0.00000  -0.12126
  17        2PX         0.00002   0.00010   0.00000   0.00000   0.00000
  18        2PY         0.00000   0.00000   0.00000   0.00000   0.00000
  19        2PZ         0.00000   0.00000   0.00000   0.00000   0.00000
  20 4   F  1S          0.00000   0.00000   0.00000   0.00000   0.00000
  21        2S          0.00016  -0.00059  -0.00042   0.00000   0.00000
  22        2PX        -0.00042  -0.00122  -0.00022   0.00000   0.00000
  23        2PY        -0.00059  -0.00300  -0.00122   0.00000   0.00000
  24        2PZ         0.00000   0.00000   0.00000  -0.00007   0.00000
  25 5   F  1S          0.00000   0.00000   0.00000   0.00000   0.00000
  26        2S          0.00016  -0.00059  -0.00042   0.00000   0.00000
  27        2PX        -0.00042  -0.00122  -0.00022   0.00000   0.00000
  28        2PY        -0.00059  -0.00300  -0.00122   0.00000   0.00000
  29        2PZ         0.00000   0.00000   0.00000  -0.00007   0.00000
  30 6   F  1S          0.00000   0.00000   0.00000   0.00000   0.00000
  31        2S          0.00016  -0.00059   0.00000  -0.00042   0.00000
  32        2PX        -0.00042  -0.00122   0.00000  -0.00022   0.00000
  33        2PY         0.00000   0.00000  -0.00007   0.00000   0.00000
  34        2PZ        -0.00059  -0.00300   0.00000  -0.00122   0.00000
  35 7   F  1S          0.00000   0.00000   0.00000   0.00000   0.00000
  36        2S          0.00016  -0.00059   0.00000  -0.00042   0.00000
  37        2PX        -0.00042  -0.00122   0.00000  -0.00022   0.00000
  38        2PY         0.00000   0.00000  -0.00007   0.00000   0.00000
  39        2PZ        -0.00059  -0.00300   0.00000  -0.00122   0.00000
                          16        17        18        19        20
  16        2S          2.18844
  17        2PX         0.00000   1.19914
  18        2PY         0.00000   0.00000   1.97086
  19        2PZ         0.00000   0.00000   0.00000   1.97086
  20 4   F  1S          0.00000   0.00000   0.00000   0.00000   2.11997
  21        2S          0.00016  -0.00059  -0.00042   0.00000  -0.12126
  22        2PX        -0.00042  -0.00122  -0.00022   0.00000   0.00000
  23        2PY        -0.00059  -0.00300  -0.00122   0.00000   0.00000
  24        2PZ         0.00000   0.00000   0.00000  -0.00007   0.00000
  25 5   F  1S          0.00000   0.00000   0.00000   0.00000   0.00000
  26        2S          0.00016  -0.00059  -0.00042   0.00000   0.00000
  27        2PX        -0.00042  -0.00122  -0.00022   0.00000   0.00000
  28        2PY        -0.00059  -0.00300  -0.00122   0.00000   0.00000
  29        2PZ         0.00000   0.00000   0.00000  -0.00007   0.00000
  30 6   F  1S          0.00000   0.00000   0.00000   0.00000   0.00000
  31        2S          0.00016  -0.00059   0.00000  -0.00042   0.00000
  32        2PX        -0.00042  -0.00122   0.00000  -0.00022   0.00000
  33        2PY         0.00000   0.00000  -0.00007   0.00000   0.00000
  34        2PZ        -0.00059  -0.00300   0.00000  -0.00122   0.00000
  35 7   F  1S          0.00000   0.00000   0.00000   0.00000   0.00000
  36        2S          0.00016  -0.00059   0.00000  -0.00042   0.00000
  37        2PX        -0.00042  -0.00122   0.00000  -0.00022   0.00000
  38        2PY         0.00000   0.00000  -0.00007   0.00000   0.00000
  39        2PZ        -0.00059  -0.00300   0.00000  -0.00122   0.00000
                          21        22        23        24        25
  21        2S          2.18844
  22        2PX         0.00000   1.97086
  23        2PY         0.00000   0.00000   1.19914
  24        2PZ         0.00000   0.00000   0.00000   1.97086
  25 5   F  1S          0.00000   0.00000   0.00000   0.00000   2.11997
  26        2S          0.00000   0.00000   0.00002   0.00000  -0.12126
  27        2PX         0.00000   0.00000   0.00000   0.00000   0.00000
  28        2PY         0.00002   0.00000   0.00010   0.00000   0.00000
  29        2PZ         0.00000   0.00000   0.00000   0.00000   0.00000
  30 6   F  1S          0.00000   0.00000   0.00000   0.00000   0.00000
  31        2S          0.00016   0.00000  -0.00059  -0.00042   0.00000
  32        2PX         0.00000  -0.00007   0.00000   0.00000   0.00000
  33        2PY        -0.00042   0.00000  -0.00122  -0.00022   0.00000
  34        2PZ        -0.00059   0.00000  -0.00300  -0.00122   0.00000
  35 7   F  1S          0.00000   0.00000   0.00000   0.00000   0.00000
  36        2S          0.00016   0.00000  -0.00059  -0.00042   0.00000
  37        2PX         0.00000  -0.00007   0.00000   0.00000   0.00000
  38        2PY        -0.00042   0.00000  -0.00122  -0.00022   0.00000
  39        2PZ        -0.00059   0.00000  -0.00300  -0.00122   0.00000
                          26        27        28        29        30
  26        2S          2.18844
  27        2PX         0.00000   1.97086
  28        2PY         0.00000   0.00000   1.19914
  29        2PZ         0.00000   0.00000   0.00000   1.97086
  30 6   F  1S          0.00000   0.00000   0.00000   0.00000   2.11997
  31        2S          0.00016   0.00000  -0.00059  -0.00042  -0.12126
  32        2PX         0.00000  -0.00007   0.00000   0.00000   0.00000
  33        2PY        -0.00042   0.00000  -0.00122  -0.00022   0.00000
  34        2PZ        -0.00059   0.00000  -0.00300  -0.00122   0.00000
  35 7   F  1S          0.00000   0.00000   0.00000   0.00000   0.00000
  36        2S          0.00016   0.00000  -0.00059  -0.00042   0.00000
  37        2PX         0.00000  -0.00007   0.00000   0.00000   0.00000
  38        2PY        -0.00042   0.00000  -0.00122  -0.00022   0.00000
  39        2PZ        -0.00059   0.00000  -0.00300  -0.00122   0.00000
                          31        32        33        34        35
  31        2S          2.18844
  32        2PX         0.00000   1.97086
  33        2PY         0.00000   0.00000   1.97086
  34        2PZ         0.00000   0.00000   0.00000   1.19914
  35 7   F  1S          0.00000   0.00000   0.00000   0.00000   2.11997
  36        2S          0.00000   0.00000   0.00000   0.00002  -0.12126
  37        2PX         0.00000   0.00000   0.00000   0.00000   0.00000
  38        2PY         0.00000   0.00000   0.00000   0.00000   0.00000
  39        2PZ         0.00002   0.00000   0.00000   0.00010   0.00000
                          36        37        38        39
  36        2S          2.18844
  37        2PX         0.00000   1.97086
  38        2PY         0.00000   0.00000   1.97086
  39        2PZ         0.00000   0.00000   0.00000   1.19914
     Gross orbital populations:
                           1
   1 1   S  1S          1.99975
   2        2S          1.98973
   3        2PX         1.98129
   4        2PY         1.98129
   5        2PZ         1.98129
   6        3S          1.43490
   7        3PX         0.99372
   8        3PY         0.99372
   9        3PZ         0.99372
  10 2   F  1S          1.99947
  11        2S          1.97307
  12        2PX         1.35270
  13        2PY         1.97493
  14        2PZ         1.97493
  15 3   F  1S          1.99947
  16        2S          1.97307
  17        2PX         1.35270
  18        2PY         1.97493
  19        2PZ         1.97493
  20 4   F  1S          1.99947
  21        2S          1.97307
  22        2PX         1.97493
  23        2PY         1.35270
  24        2PZ         1.97493
  25 5   F  1S          1.99947
  26        2S          1.97307
  27        2PX         1.97493
  28        2PY         1.35270
  29        2PZ         1.97493
  30 6   F  1S          1.99947
  31        2S          1.97307
  32        2PX         1.97493
  33        2PY         1.97493
  34        2PZ         1.35270
  35 7   F  1S          1.99947
  36        2S          1.97307
  37        2PX         1.97493
  38        2PY         1.97493
  39        2PZ         1.35270
          Condensed to atoms (all electrons):
               1          2          3          4          5          6
     1  S   13.757713   0.098617   0.098617   0.098617   0.098617   0.098617
     2  F    0.098617   9.206737   0.000137  -0.007599  -0.007599  -0.007599
     3  F    0.098617   0.000137   9.206737  -0.007599  -0.007599  -0.007599
     4  F    0.098617  -0.007599  -0.007599   9.206737   0.000137  -0.007599
     5  F    0.098617  -0.007599  -0.007599   0.000137   9.206737  -0.007599
     6  F    0.098617  -0.007599  -0.007599  -0.007599  -0.007599   9.206737
     7  F    0.098617  -0.007599  -0.007599  -0.007599  -0.007599   0.000137
               7
     1  S    0.098617
     2  F   -0.007599
     3  F   -0.007599
     4  F   -0.007599
     5  F   -0.007599
     6  F    0.000137
     7  F    9.206737
 Mulliken charges:
               1
     1  S    1.650583
     2  F   -0.275097
     3  F   -0.275097
     4  F   -0.275097
     5  F   -0.275097
     6  F   -0.275097
     7  F   -0.275097
 Sum of Mulliken charges =   0.00000
 Mulliken charges with hydrogens summed into heavy atoms:
               1
     1  S    1.650583
     2  F   -0.275097
     3  F   -0.275097
     4  F   -0.275097
     5  F   -0.275097
     6  F   -0.275097
     7  F   -0.275097
 Electronic spatial extent (au):  <R**2>=            581.4206
 Charge=              0.0000 electrons
 Dipole moment (field-independent basis, Debye):
    X=              0.0000    Y=              0.0000    Z=              0.0000  Tot=              0.0000
 Quadrupole moment (field-independent basis, Debye-Ang):
   XX=            -39.3452   YY=            -39.3452   ZZ=            -39.3452
   XY=              0.0000   XZ=              0.0000   YZ=              0.0000
 Traceless Quadrupole moment (field-independent basis, Debye-Ang):
   XX=              0.0000   YY=              0.0000   ZZ=              0.0000
   XY=              0.0000   XZ=              0.0000   YZ=              0.0000
 Octapole moment (field-independent basis, Debye-Ang**2):
  XXX=              0.0000  YYY=              0.0000  ZZZ=              0.0000  XYY=              0.0000
  XXY=              0.0000  XXZ=              0.0000  XZZ=              0.0000  YZZ=              0.0000
  YYZ=              0.0000  XYZ=              0.0000
 Hexadecapole moment (field-independent basis, Debye-Ang**3):
 XXXX=           -153.3543 YYYY=           -153.3543 ZZZZ=           -153.3543 XXXY=              0.0000
 XXXZ=              0.0000 YYYX=              0.0000 YYYZ=              0.0000 ZZZX=              0.0000
 ZZZY=              0.0000 XXYY=            -45.8497 XXZZ=            -45.8497 YYZZ=            -45.8497
 XXYZ=              0.0000 YYXZ=              0.0000 ZZXY=              0.0000
 N-N= 5.532573484467D+02 E-N=-3.446554911577D+03  KE= 9.712536316251D+02
 Orbital energies and kinetic energies (alpha):
                                 1                 2
   1         O               -91.454014        116.929553
   2         O               -25.921731         36.579272
   3         O               -25.921658         36.584109
   4         O               -25.921658         36.584109
   5         O               -25.921658         36.584109
   6         O               -25.921235         36.604498
   7         O               -25.921235         36.604498
   8         O                -9.268254         21.661725
   9         O                -6.903926         16.299266
  10         O                -6.903926         16.299266
  11         O                -6.903926         16.299266
  12         O                -1.696473          2.680248
  13         O                -1.557972          3.365354
  14         O                -1.557972          3.365354
  15         O                -1.557972          3.365354
  16         O                -1.491253          3.885507
  17         O                -1.491253          3.885507
  18         O                -0.959846          3.588445
  19         O                -0.754080          2.837039
  20         O                -0.754080          2.837039
  21         O                -0.754080          2.837039
  22         O                -0.563343          3.161019
  23         O                -0.563343          3.161019
  24         O                -0.563343          3.161019
  25         O                -0.518416          3.267863
  26         O                -0.518416          3.267863
  27         O                -0.518416          3.267863
  28         O                -0.488879          3.339034
  29         O                -0.488879          3.339034
  30         O                -0.488879          3.339034
  31         O                -0.487526          3.330810
  32         O                -0.487526          3.330810
  33         O                -0.487526          3.330810
  34         O                -0.409491          3.327042
  35         O                -0.409491          3.327042
  36         V                 0.313906          4.864043
  37         V                 0.442409          4.605824
  38         V                 0.442409          4.605824
  39         V                 0.442409          4.605824
 Total kinetic energy from orbitals= 9.712536316251D+02
 No NMR shielding tensors so no spin-rotation constants.
 Leave Link  601 at Mon Jun 22 12:15:35 2020, MaxMem=    67108864 cpu:         1.1
 (Enter /aplic/Gaussian/g09d01_prebuilt/g09/l701.exe)
 Compute integral first derivatives.
 ... and contract with generalized density number  0.
 Leave Link  701 at Mon Jun 22 12:15:35 2020, MaxMem=    67108864 cpu:         0.9
 (Enter /aplic/Gaussian/g09d01_prebuilt/g09/l702.exe)
 L702 exits ... SP integral derivatives will be done elsewhere.
 Leave Link  702 at Mon Jun 22 12:15:35 2020, MaxMem=    67108864 cpu:         0.2
 (Enter /aplic/Gaussian/g09d01_prebuilt/g09/l703.exe)
 Compute integral first derivatives, UseDBF=F ICtDFT=           0.
 Integral derivatives from FoFJK, PRISM(SPDF).
 Calling FoFJK, ICntrl=      2127 FMM=F ISym2X=0 I1Cent= 0 IOpClX= 0 NMat=1 NMatS=1 NMatT=0.
 FoFJK:  IHMeth= 1 ICntrl=    2127 DoSepK=F KAlg= 0 I1Cent=   0 FoldK=F
 IRaf=         0 NMat=   1 IRICut=       1 DoRegI=T DoRafI=F ISym2E= 0.
 FoFCou: FMM=F IPFlag=           0 FMFlag=      100000 FMFlg1=         800
         NFxFlg=           0 DoJE=F BraDBF=F KetDBF=F FulRan=T
         wScrn=  0.000000 ICntrl=    2127 IOpCl=  0 I1Cent=           0 NGrid=           0
         NMat0=    1 NMatS0=      1 NMatT0=    0 NMatD0=    1 NMtDS0=    0 NMtDT0=    0
 Symmetry not used in FoFCou.
 Leave Link  703 at Mon Jun 22 12:15:35 2020, MaxMem=    67108864 cpu:         0.9
 (Enter /aplic/Gaussian/g09d01_prebuilt/g09/l716.exe)
 Dipole        =-1.42108547D-14 3.19744231D-14 3.90798505D-14
 -------------------------------------------------------------------
 Center     Atomic                   Forces (Hartrees/Bohr)
 Number     Number              X              Y              Z
 -------------------------------------------------------------------
      1       16           0.000000000    0.000000000    0.000000000
      2        9           0.045682521    0.000000000    0.000000000
      3        9          -0.045682521    0.000000000    0.000000000
      4        9           0.000000000    0.045682521    0.000000000
      5        9           0.000000000   -0.045682521    0.000000000
      6        9           0.000000000    0.000000000    0.045682521
      7        9           0.000000000    0.000000000   -0.045682521
 -------------------------------------------------------------------
 Cartesian Forces:  Max     0.045682521 RMS     0.024418335
 Leave Link  716 at Mon Jun 22 12:15:36 2020, MaxMem=    67108864 cpu:         0.2
 (Enter /aplic/Gaussian/g09d01_prebuilt/g09/l103.exe)

 GradGradGradGradGradGradGradGradGradGradGradGradGradGradGradGradGradGrad
 Berny optimization.
 FormGI is forming the generalized inverse of G from B-inverse, IUseBI=4.
 Internal  Forces:  Max     0.045682521 RMS     0.019781112
 Search for a local minimum.
 Step number   1 out of a maximum of   42
 All quantities printed in internal units (Hartrees-Bohrs-Radians)
 RMS Force = .19781D-01 SwitMx=.10000D-02 MixMth= 1
 Mixed Optimization -- RFO/linear search
 Second derivative matrix not updated -- first step.
 ITU=  0
     Eigenvalues ---    0.08016   0.08016   0.09903   0.13677   0.13677
     Eigenvalues ---    0.13677   0.13677   0.25000   0.25000   0.51218
     Eigenvalues ---    0.51218   0.51218   0.51218   0.51218   0.51218
 RFO step:  Lambda=-2.33800953D-02 EMin= 8.01571920D-02
 Linear search not attempted -- first point.
 Iteration  1 RMS(Cart)=  0.03693563 RMS(Int)=  0.00000000
 Iteration  2 RMS(Cart)=  0.00000000 RMS(Int)=  0.00000000
 ITry= 1 IFail=0 DXMaxC= 8.53D-02 DCOld= 1.00D+10 DXMaxT= 3.00D-01 DXLimC= 3.00D+00 Rises=F
 Variable       Old X    -DE/DX   Delta X   Delta X   Delta X     New X
                                 (Linear)    (Quad)   (Total)
    R1        3.02356   0.04568   0.00000   0.08530   0.08530   3.10886
    R2        3.02356   0.04568   0.00000   0.08530   0.08530   3.10886
    R3        3.02356   0.04568   0.00000   0.08530   0.08530   3.10886
    R4        3.02356   0.04568   0.00000   0.08530   0.08530   3.10886
    R5        3.02356   0.04568   0.00000   0.08530   0.08530   3.10886
    R6        3.02356   0.04568   0.00000   0.08530   0.08530   3.10886
    A1        1.57080   0.00000   0.00000   0.00000   0.00000   1.57080
    A2        1.57080   0.00000   0.00000   0.00000   0.00000   1.57080
[...]
     21  0.000000D+00  0.000000D+00  0.393869D-02  0.000000D+00  0.000000D+00
               21 
     21  0.415250D+00
 FormGI is forming the generalized inverse of G from B-inverse, IUseBI=4.
 Force constants in internal coordinates: 
                1             2             3             4             5 
      1  0.415250D+00
      2 -0.393869D-02  0.415250D+00
      3 -0.185398D-02 -0.185398D-02  0.415250D+00
      4 -0.185398D-02 -0.185398D-02 -0.393869D-02  0.415250D+00
      5 -0.185398D-02 -0.185398D-02 -0.185398D-02 -0.185398D-02  0.415250D+00
      6 -0.185398D-02 -0.185398D-02 -0.185398D-02 -0.185398D-02 -0.393869D-02
      7  0.304939D-02 -0.304939D-02  0.304939D-02 -0.304939D-02  0.000000D+00
      8  0.304939D-02 -0.304939D-02 -0.304939D-02  0.304939D-02  0.000000D+00
      9  0.609878D-02 -0.609878D-02  0.000000D+00  0.000000D+00  0.609878D-02
     10  0.609878D-02 -0.609878D-02  0.000000D+00  0.000000D+00 -0.609878D-02
     11 -0.304939D-02  0.304939D-02  0.304939D-02 -0.304939D-02  0.000000D+00
     12 -0.304939D-02  0.304939D-02 -0.304939D-02  0.304939D-02  0.000000D+00
     13 -0.609878D-02  0.609878D-02  0.000000D+00  0.000000D+00  0.609878D-02
     14 -0.609878D-02  0.609878D-02  0.000000D+00  0.000000D+00 -0.609878D-02
     15  0.000000D+00  0.000000D+00  0.609878D-02 -0.609878D-02  0.609878D-02
     16  0.000000D+00  0.000000D+00  0.609878D-02 -0.609878D-02 -0.609878D-02
     17  0.000000D+00  0.000000D+00 -0.609878D-02  0.609878D-02  0.609878D-02
     18  0.000000D+00  0.000000D+00 -0.609878D-02  0.609878D-02 -0.609878D-02
     19  0.000000D+00  0.000000D+00  0.609878D-02 -0.609878D-02  0.000000D+00
     20  0.609878D-02 -0.609878D-02  0.000000D+00  0.000000D+00  0.000000D+00
     21  0.121976D-01 -0.121976D-01  0.000000D+00  0.000000D+00  0.000000D+00
     22  0.000000D+00  0.000000D+00  0.000000D+00  0.000000D+00 -0.121976D-01
     23  0.000000D+00  0.000000D+00  0.000000D+00  0.000000D+00  0.121976D-01
     24  0.000000D+00  0.000000D+00 -0.121976D-01  0.121976D-01  0.000000D+00
     25  0.304939D-02 -0.304939D-02  0.304939D-02 -0.304939D-02  0.000000D+00
     26 -0.304939D-02  0.304939D-02 -0.304939D-02  0.304939D-02  0.000000D+00
     27 -0.304939D-02  0.304939D-02  0.304939D-02 -0.304939D-02  0.000000D+00
     28  0.304939D-02 -0.304939D-02 -0.304939D-02  0.304939D-02  0.000000D+00
     29  0.304939D-02 -0.304939D-02 -0.304939D-02  0.304939D-02  0.000000D+00
     30 -0.304939D-02  0.304939D-02  0.304939D-02 -0.304939D-02  0.000000D+00
     31 -0.304939D-02  0.304939D-02 -0.304939D-02  0.304939D-02  0.000000D+00
     32  0.304939D-02 -0.304939D-02  0.304939D-02 -0.304939D-02  0.000000D+00
                6             7             8             9            10 
      6  0.415250D+00
      7  0.000000D+00  0.186977D-01
      8  0.000000D+00 -0.783833D-02  0.186977D-01
      9 -0.609878D-02  0.228106D-02  0.228106D-02  0.113982D+00
     10  0.609878D-02  0.228106D-02  0.228106D-02 -0.705450D-01  0.113982D+00
     11  0.000000D+00 -0.783833D-02 -0.302102D-02 -0.228106D-02 -0.228106D-02
     12  0.000000D+00 -0.302102D-02 -0.783833D-02 -0.228106D-02 -0.228106D-02
     13 -0.609878D-02 -0.228106D-02 -0.228106D-02 -0.705450D-01  0.271076D-01
     14  0.609878D-02 -0.228106D-02 -0.228106D-02  0.271076D-01 -0.705450D-01
     15 -0.609878D-02  0.228106D-02 -0.228106D-02  0.456213D-02 -0.456213D-02
     16  0.609878D-02  0.228106D-02 -0.228106D-02 -0.456213D-02  0.456213D-02
     17 -0.609878D-02 -0.228106D-02  0.228106D-02  0.456213D-02 -0.456213D-02
     18  0.609878D-02 -0.228106D-02  0.228106D-02 -0.456213D-02  0.456213D-02
     19  0.000000D+00  0.108594D-01 -0.108594D-01  0.000000D+00  0.000000D+00
     20  0.000000D+00  0.108594D-01  0.108594D-01  0.456213D-02  0.456213D-02
     21  0.000000D+00  0.456213D-02  0.456213D-02  0.434374D-01  0.434374D-01
     22  0.121976D-01  0.000000D+00  0.000000D+00 -0.434374D-01  0.434374D-01
     23 -0.121976D-01  0.000000D+00  0.000000D+00  0.912425D-02 -0.912425D-02
     24  0.000000D+00 -0.456213D-02  0.456213D-02  0.000000D+00  0.000000D+00
     25  0.000000D+00  0.186977D-01 -0.783833D-02  0.228106D-02  0.228106D-02
     26  0.000000D+00 -0.186977D-01  0.783833D-02 -0.228106D-02 -0.228106D-02
     27  0.000000D+00  0.783833D-02 -0.186977D-01 -0.228106D-02 -0.228106D-02
     28  0.000000D+00 -0.783833D-02  0.186977D-01  0.228106D-02  0.228106D-02
     29  0.000000D+00  0.783833D-02  0.302102D-02  0.228106D-02  0.228106D-02
     30  0.000000D+00 -0.783833D-02 -0.302102D-02 -0.228106D-02 -0.228106D-02
     31  0.000000D+00 -0.302102D-02 -0.783833D-02 -0.228106D-02 -0.228106D-02
     32  0.000000D+00  0.302102D-02  0.783833D-02  0.228106D-02  0.228106D-02
               11            12            13            14            15 
     11  0.186977D-01
     12 -0.783833D-02  0.186977D-01
     13  0.228106D-02  0.228106D-02  0.113982D+00
     14  0.228106D-02  0.228106D-02 -0.705450D-01  0.113982D+00
     15  0.228106D-02 -0.228106D-02  0.456213D-02 -0.456213D-02  0.113982D+00
     16  0.228106D-02 -0.228106D-02 -0.456213D-02  0.456213D-02 -0.705450D-01
     17 -0.228106D-02  0.228106D-02  0.456213D-02 -0.456213D-02 -0.705450D-01
     18 -0.228106D-02  0.228106D-02 -0.456213D-02  0.456213D-02  0.271076D-01
     19  0.108594D-01 -0.108594D-01  0.000000D+00  0.000000D+00  0.456213D-02
     20 -0.108594D-01 -0.108594D-01 -0.456213D-02 -0.456213D-02  0.000000D+00
     21 -0.456213D-02 -0.456213D-02 -0.434374D-01 -0.434374D-01  0.000000D+00
     22  0.000000D+00  0.000000D+00 -0.434374D-01  0.434374D-01 -0.912425D-02
     23  0.000000D+00  0.000000D+00  0.912425D-02 -0.912425D-02  0.434374D-01
     24 -0.456213D-02  0.456213D-02  0.000000D+00  0.000000D+00 -0.434374D-01
     25 -0.783833D-02 -0.302102D-02 -0.228106D-02 -0.228106D-02  0.228106D-02
     26  0.783833D-02  0.302102D-02  0.228106D-02  0.228106D-02 -0.228106D-02
     27  0.302102D-02  0.783833D-02  0.228106D-02  0.228106D-02  0.228106D-02
     28 -0.302102D-02 -0.783833D-02 -0.228106D-02 -0.228106D-02 -0.228106D-02
     29 -0.186977D-01  0.783833D-02 -0.228106D-02 -0.228106D-02 -0.228106D-02
     30  0.186977D-01 -0.783833D-02  0.228106D-02  0.228106D-02  0.228106D-02
     31 -0.783833D-02  0.186977D-01  0.228106D-02  0.228106D-02 -0.228106D-02
     32  0.783833D-02 -0.186977D-01 -0.228106D-02 -0.228106D-02  0.228106D-02
               16            17            18            19            20 
     16  0.113982D+00
     17  0.271076D-01  0.113982D+00
     18 -0.705450D-01 -0.705450D-01  0.113982D+00
     19  0.456213D-02 -0.456213D-02 -0.456213D-02  0.217187D-01
     20  0.000000D+00  0.000000D+00  0.000000D+00  0.000000D+00  0.217187D-01
     21  0.000000D+00  0.000000D+00  0.000000D+00  0.000000D+00  0.912425D-02
     22  0.912425D-02 -0.912425D-02  0.912425D-02  0.000000D+00  0.000000D+00
     23 -0.434374D-01  0.434374D-01 -0.434374D-01  0.000000D+00  0.000000D+00
     24 -0.434374D-01  0.434374D-01  0.434374D-01 -0.912425D-02  0.000000D+00
     25  0.228106D-02 -0.228106D-02 -0.228106D-02  0.108594D-01  0.108594D-01
     26 -0.228106D-02  0.228106D-02  0.228106D-02 -0.108594D-01 -0.108594D-01
     27  0.228106D-02 -0.228106D-02 -0.228106D-02  0.108594D-01 -0.108594D-01
     28 -0.228106D-02  0.228106D-02  0.228106D-02 -0.108594D-01  0.108594D-01
     29 -0.228106D-02  0.228106D-02  0.228106D-02 -0.108594D-01  0.108594D-01
     30  0.228106D-02 -0.228106D-02 -0.228106D-02  0.108594D-01 -0.108594D-01
     31 -0.228106D-02  0.228106D-02  0.228106D-02 -0.108594D-01 -0.108594D-01
     32  0.228106D-02 -0.228106D-02 -0.228106D-02  0.108594D-01  0.108594D-01
               21            22            23            24            25 
     21  0.868748D-01
     22  0.000000D+00  0.868748D-01
     23  0.000000D+00 -0.182485D-01  0.868748D-01
     24  0.000000D+00  0.000000D+00  0.000000D+00  0.868748D-01
     25  0.456213D-02  0.000000D+00  0.000000D+00 -0.456213D-02  0.186977D-01
     26 -0.456213D-02  0.000000D+00  0.000000D+00  0.456213D-02 -0.186977D-01
     27 -0.456213D-02  0.000000D+00  0.000000D+00 -0.456213D-02  0.783833D-02
     28  0.456213D-02  0.000000D+00  0.000000D+00  0.456213D-02 -0.783833D-02
     29  0.456213D-02  0.000000D+00  0.000000D+00  0.456213D-02  0.783833D-02
     30 -0.456213D-02  0.000000D+00  0.000000D+00 -0.456213D-02 -0.783833D-02
     31 -0.456213D-02  0.000000D+00  0.000000D+00  0.456213D-02 -0.302102D-02
     32  0.456213D-02  0.000000D+00  0.000000D+00 -0.456213D-02  0.302102D-02
               26            27            28            29            30 
     26  0.186977D-01
     27 -0.783833D-02  0.186977D-01
     28  0.783833D-02 -0.186977D-01  0.186977D-01
     29 -0.783833D-02 -0.302102D-02  0.302102D-02  0.186977D-01
     30  0.783833D-02  0.302102D-02 -0.302102D-02 -0.186977D-01  0.186977D-01
     31  0.302102D-02  0.783833D-02 -0.783833D-02  0.783833D-02 -0.783833D-02
     32 -0.302102D-02 -0.783833D-02  0.783833D-02 -0.783833D-02  0.783833D-02
               31            32 
     31  0.186977D-01
     32 -0.186977D-01  0.186977D-01
 Leave Link  716 at Mon Jun 22 12:15:45 2020, MaxMem=    67108864 cpu:         0.6
 (Enter /aplic/Gaussian/g09d01_prebuilt/g09/l103.exe)

 GradGradGradGradGradGradGradGradGradGradGradGradGradGradGradGradGradGrad
 Berny optimization.
 Red2BG is reusing G-inverse.
 Internal  Forces:  Max     0.000015091 RMS     0.000006535
 Search for a local minimum.
 Step number   1 out of a maximum of    2
 All quantities printed in internal units (Hartrees-Bohrs-Radians)
 Second derivative matrix not updated -- analytic derivatives used.
 ITU=  0
     Eigenvalues ---    0.07947   0.07947   0.09406   0.13725   0.17759
     Eigenvalues ---    0.17759   0.20470   0.28218   0.28218   0.40389
     Eigenvalues ---    0.41502   0.41502   0.42275   0.42275   0.42474
 Angle between quadratic step and forces=   0.00 degrees.
 Linear search not attempted -- first point.
 Iteration  1 RMS(Cart)=  0.00001618 RMS(Int)=  0.00000000
 Iteration  2 RMS(Cart)=  0.00000000 RMS(Int)=  0.00000000
 ITry= 1 IFail=0 DXMaxC= 3.74D-05 DCOld= 1.00D+10 DXMaxT= 3.00D-01 DXLimC= 3.00D+00 Rises=F
 Variable       Old X    -DE/DX   Delta X   Delta X   Delta X     New X
                                 (Linear)    (Quad)   (Total)
    R1        3.12232  -0.00002   0.00000  -0.00004  -0.00004   3.12228
    R2        3.12232  -0.00002   0.00000  -0.00004  -0.00004   3.12228
    R3        3.12232  -0.00002   0.00000  -0.00004  -0.00004   3.12228
    R4        3.12232  -0.00002   0.00000  -0.00004  -0.00004   3.12228
    R5        3.12232  -0.00002   0.00000  -0.00004  -0.00004   3.12228
    R6        3.12232  -0.00002   0.00000  -0.00004  -0.00004   3.12228
    A1        1.57080   0.00000   0.00000   0.00000   0.00000   1.57080
    A2        1.57080   0.00000   0.00000   0.00000   0.00000   1.57080
    A3        1.57080   0.00000   0.00000   0.00000   0.00000   1.57080
    A4        1.57080   0.00000   0.00000   0.00000   0.00000   1.57080
    A5        1.57080   0.00000   0.00000   0.00000   0.00000   1.57080
    A6        1.57080   0.00000   0.00000   0.00000   0.00000   1.57080
    A7        1.57080   0.00000   0.00000   0.00000   0.00000   1.57080
    A8        1.57080   0.00000   0.00000   0.00000   0.00000   1.57080
    A9        1.57080   0.00000   0.00000   0.00000   0.00000   1.57080
   A10        1.57080   0.00000   0.00000   0.00000   0.00000   1.57080
   A11        1.57080   0.00000   0.00000   0.00000   0.00000   1.57080
   A12        1.57080   0.00000   0.00000   0.00000   0.00000   1.57080
   A13        3.14159   0.00000   0.00000   0.00000   0.00000   3.14159
   A14        3.14159   0.00000   0.00000   0.00000   0.00000   3.14159
   A15        3.14159   0.00000   0.00000   0.00000   0.00000   3.14159
   A16        3.14159   0.00000   0.00000   0.00000   0.00000   3.14159
   A17        3.14159   0.00000   0.00000   0.00000   0.00000   3.14159
   A18        3.14159   0.00000   0.00000   0.00000   0.00000   3.14159
    D1        1.57080   0.00000   0.00000   0.00000   0.00000   1.57080
    D2       -1.57080   0.00000   0.00000   0.00000   0.00000  -1.57080
    D3       -1.57080   0.00000   0.00000   0.00000   0.00000  -1.57080
    D4        1.57080   0.00000   0.00000   0.00000   0.00000   1.57080
    D5       -1.57080   0.00000   0.00000   0.00000   0.00000  -1.57080
    D6        1.57080   0.00000   0.00000   0.00000   0.00000   1.57080
    D7        1.57080   0.00000   0.00000   0.00000   0.00000   1.57080
    D8       -1.57080   0.00000   0.00000   0.00000   0.00000  -1.57080
         Item               Value     Threshold  Converged?
 Maximum Force            0.000015     0.000450     YES
 RMS     Force            0.000007     0.000300     YES
 Maximum Displacement     0.000037     0.001800     YES
 RMS     Displacement     0.000016     0.001200     YES
 Predicted change in Energy=-1.691583D-09
 Optimization completed.
    -- Stationary point found.
                           ----------------------------
                           !   Optimized Parameters   !
                           ! (Angstroms and Degrees)  !
 --------------------------                            --------------------------
 ! Name  Definition              Value          Derivative Info.                !
 --------------------------------------------------------------------------------
 ! R1    R(1,2)                  1.6523         -DE/DX =    0.0                 !
 ! R2    R(1,3)                  1.6523         -DE/DX =    0.0                 !
 ! R3    R(1,4)                  1.6523         -DE/DX =    0.0                 !
 ! R4    R(1,5)                  1.6523         -DE/DX =    0.0                 !
 ! R5    R(1,6)                  1.6523         -DE/DX =    0.0                 !
 ! R6    R(1,7)                  1.6523         -DE/DX =    0.0                 !
 ! A1    A(2,1,4)               90.0            -DE/DX =    0.0                 !
 ! A2    A(2,1,5)               90.0            -DE/DX =    0.0                 !
 ! A3    A(2,1,6)               90.0            -DE/DX =    0.0                 !
 ! A4    A(2,1,7)               90.0            -DE/DX =    0.0                 !
 ! A5    A(3,1,4)               90.0            -DE/DX =    0.0                 !
 ! A6    A(3,1,5)               90.0            -DE/DX =    0.0                 !
 ! A7    A(3,1,6)               90.0            -DE/DX =    0.0                 !
 ! A8    A(3,1,7)               90.0            -DE/DX =    0.0                 !
 ! A9    A(4,1,6)               90.0            -DE/DX =    0.0                 !
 ! A10   A(4,1,7)               90.0            -DE/DX =    0.0                 !
 ! A11   A(5,1,6)               90.0            -DE/DX =    0.0                 !
 ! A12   A(5,1,7)               90.0            -DE/DX =    0.0                 !
 ! A13   L(2,1,3,4,-1)         180.0            -DE/DX =    0.0                 !
 ! A14   L(4,1,5,2,-1)         180.0            -DE/DX =    0.0                 !
 ! A15   L(6,1,7,2,-1)         180.0            -DE/DX =    0.0                 !
 ! A16   L(2,1,3,4,-2)         180.0            -DE/DX =    0.0                 !
 ! A17   L(4,1,5,2,-2)         180.0            -DE/DX =    0.0                 !
 ! A18   L(6,1,7,2,-2)         180.0            -DE/DX =    0.0                 !
 ! D1    D(2,1,6,4)             90.0            -DE/DX =    0.0                 !
 ! D2    D(2,1,7,4)            -90.0            -DE/DX =    0.0                 !
 ! D3    D(2,1,6,5)            -90.0            -DE/DX =    0.0                 !
 ! D4    D(2,1,7,5)             90.0            -DE/DX =    0.0                 !
 ! D5    D(3,1,6,4)            -90.0            -DE/DX =    0.0                 !
 ! D6    D(3,1,7,4)             90.0            -DE/DX =    0.0                 !
 ! D7    D(3,1,6,5)             90.0            -DE/DX =    0.0                 !
 ! D8    D(3,1,7,5)            -90.0            -DE/DX =    0.0                 !
 --------------------------------------------------------------------------------
 GradGradGradGradGradGradGradGradGradGradGradGradGradGradGradGradGradGrad

 Leave Link  103 at Mon Jun 22 12:15:45 2020, MaxMem=    67108864 cpu:         2.5
 (Enter /aplic/Gaussian/g09d01_prebuilt/g09/l9999.exe)
 1\1\GINC-G4NODES4\Freq\RHF\STO-3G\F6S1\G8EFREM\22-Jun-2020\0\\#P Geom=
 AllCheck Guess=TCheck SCRF=Check GenChk RHF/STO-3G Freq\\test hf\\0,1\
 S,0.,0.,0.\F,1.6522591257,0.,0.\F,-1.6522591257,0.,0.\F,0.,1.652259125
 7,0.\F,0.,-1.6522591257,0.\F,0.,0.,1.6522591257\F,0.,0.,-1.6522591257\
 \Version=ES64L-G09RevD.01\HF=-980.9379032\RMSD=2.141e-10\RMSF=8.067e-0
 6\ZeroPoint=0.021056\Thermal=0.0271937\Dipole=0.,0.,0.\DipoleDeriv=2.6
 530346,0.,0.,0.,2.6530346,0.,0.,0.,2.6530346,-0.4042207,0.,0.,0.,-0.46
 11483,0.,0.,0.,-0.4611483,-0.4042207,0.,0.,0.,-0.4611483,0.,0.,0.,-0.4
 611483,-0.4611483,0.,0.,0.,-0.4042207,0.,0.,0.,-0.4611483,-0.4611483,0
 .,0.,0.,-0.4042207,0.,0.,0.,-0.4611483,-0.4611483,0.,0.,0.,-0.4611483,
 0.,0.,0.,-0.4042207,-0.4611483,0.,0.,0.,-0.4611483,0.,0.,0.,-0.4042207
 \Polar=17.1309603,0.,17.1309603,0.,0.,17.1309603\PolarDeriv=0.,0.,0.,0
 .,0.,0.,0.,0.,0.,0.,0.,0.,0.,0.,0.,0.,0.,0.,12.4563013,0.,0.9071885,0.
 ,0.,0.9071885,0.,3.285447,0.,0.,0.,0.,0.,0.,0.,3.285447,0.,0.,-12.4563
 013,0.,-0.9071885,0.,0.,-0.9071885,0.,-3.285447,0.,0.,0.,0.,0.,0.,0.,-
 3.285447,0.,0.,0.,3.285447,0.,0.,0.,0.,0.9071885,0.,12.4563013,0.,0.,0
 .9071885,0.,0.,0.,0.,3.2854472,0.,0.,-3.285447,0.,0.,0.,0.,-0.9071885,
 0.,-12.4563013,0.,0.,-0.9071885,0.,0.,0.,0.,-3.2854472,0.,0.,0.,0.,3.2
 854473,0.,0.,0.,0.,0.,0.,3.2854472,0.,0.9071885,0.,0.9071885,0.,0.,12.
 4563013,0.,0.,0.,-3.2854473,0.,0.,0.,0.,0.,0.,-3.2854472,0.,-0.9071885
 ,0.,-0.9071885,0.,0.,-12.4563013\HyperPolar=0.,0.,0.,0.,0.,0.,0.,0.,0.
 ,0.\PG=OH [O(S1),3C4(F1.F1)]\NImag=0\\1.05844579,0.,1.05844579,0.,0.,1
 .05844579,-0.38793565,0.,0.,0.41524955,0.,-0.07064362,0.,0.,0.06459484
 ,0.,0.,-0.07064362,0.,0.,0.06459484,-0.38793565,0.,0.,0.00393869,0.,0.
 ,0.41524955,0.,-0.07064362,0.,0.,0.00670020,0.,0.,0.06459484,0.,0.,-0.
 07064362,0.,0.,0.00670020,0.,0.,0.06459484,-0.07064362,0.,0.,-0.007813
 15,0.02894491,0.,-0.00781315,-0.02894491,0.,0.06459484,0.,-0.38793565,
 0.,-0.00185398,-0.00781315,0.,0.00185398,-0.00781315,0.,0.,0.41524955,
 0.,0.,-0.07064362,0.,0.,0.00748744,0.,0.,0.00748744,0.,0.,0.06459484,-
 0.07064362,0.,0.,-0.00781315,-0.02894491,0.,-0.00781315,0.02894491,0.,
 0.00670020,0.,0.,0.06459484,0.,-0.38793565,0.,0.00185398,-0.00781315,0
 .,-0.00185398,-0.00781315,0.,0.,0.00393869,0.,0.,0.41524955,0.,0.,-0.0
 7064362,0.,0.,0.00748744,0.,0.,0.00748744,0.,0.,0.00670020,0.,0.,0.064
 59484,-0.07064362,0.,0.,-0.00781315,0.,0.02894491,-0.00781315,0.,-0.02
 894491,0.00748744,0.,0.,0.00748744,0.,0.,0.06459484,0.,-0.07064362,0.,
 0.,0.00748744,0.,0.,0.00748744,0.,0.,-0.00781315,0.02894491,0.,-0.0078
 1315,-0.02894491,0.,0.06459484,0.,0.,-0.38793565,-0.00185398,0.,-0.007
 81315,0.00185398,0.,-0.00781315,0.,-0.00185398,-0.00781315,0.,0.001853
 98,-0.00781315,0.,0.,0.41524955,-0.07064362,0.,0.,-0.00781315,0.,-0.02
 894491,-0.00781315,0.,0.02894491,0.00748744,0.,0.,0.00748744,0.,0.,0.0
 0670020,0.,0.,0.06459484,0.,-0.07064362,0.,0.,0.00748744,0.,0.,0.00748
 744,0.,0.,-0.00781315,-0.02894491,0.,-0.00781315,0.02894491,0.,0.00670
 020,0.,0.,0.06459484,0.,0.,-0.38793565,0.00185398,0.,-0.00781315,-0.00
 185398,0.,-0.00781315,0.,0.00185398,-0.00781315,0.,-0.00185398,-0.0078
 1315,0.,0.,0.00393869,0.,0.,0.41524955\\0.,0.,0.,0.00001509,0.,0.,-0.0
 0001509,0.,0.,0.,0.00001509,0.,0.,-0.00001509,0.,0.,0.,0.00001509,0.,0
 .,-0.00001509\\\@


 IT IS DOUBTED WHETHER A MAN EVER BRINGS HIS FACULTIES TO BEAR WITH THEIR FULL FORCE
 ON A SUBJECT UNTIL HE WRITES UPON IT.

                          -- CICERO
 Job cpu time:       0 days  0 hours  0 minutes 18.9 seconds.
 File lengths (MBytes):  RWF=      5 Int=      0 D2E=      0 Chk=      1 Scr=      1
 Normal termination of Gaussian 09 at Mon Jun 22 12:15:45 2020.
