CpTiCl3]0                                                               
Freq      RTPSSh                                                      6-31G(d)            
Number of atoms                            I               14
Info1-9                                    I   N=           9
          24          23           0           0           0         100
           6          18        -502
Full Title                                 C   N=           1
CpTiCl3]0   
Route                                      C   N=           9
#p TPSSh/6-31G(d) NOSYMM freq scf=(xqc,direct,MaxConventiona
lCycles=200,MaxCycle=300) gfinput 6D 10F        
Charge                                     I                0
Multiplicity                               I                1
Number of electrons                        I              108
Number of alpha electrons                  I               54
Number of beta electrons                   I               54
Number of basis functions                  I              181
Number of independent functions            I              181
Number of point charges in /Mol/           I                0
Number of translation vectors              I                0
Atomic numbers                             I   N=          14
          22           6           6           6           6           6
           1           1           1           1           1          17
          17          17
Nuclear charges                            R   N=          14
  2.20000000E+01  6.00000000E+00  6.00000000E+00  6.00000000E+00  6.00000000E+00
  6.00000000E+00  1.00000000E+00  1.00000000E+00  1.00000000E+00  1.00000000E+00
  1.00000000E+00  1.70000000E+01  1.70000000E+01  1.70000000E+01
Current cartesian coordinates              R   N=          42
  4.61093176E-03 -2.30546588E-04  3.27054902E-02  2.28016056E+00  2.53223302E-04
  3.83736670E+00  7.01398310E-01 -2.17424519E+00  3.86447860E+00 -1.84520230E+00
 -1.34704214E+00  3.84644684E+00 -1.84595630E+00  1.34527336E+00  3.84658479E+00
  7.00160540E-01  2.17389748E+00  3.86462600E+00  4.32371040E+00  8.25810320E-04
  3.74734582E+00  1.33508395E+00 -4.11526983E+00  3.80137876E+00 -3.50089530E+00
 -2.54330870E+00  3.76208001E+00 -3.50231259E+00  2.54062718E+00  3.76236158E+00
  1.33282951E+00  4.11525849E+00  3.80163954E+00 -3.83094163E+00  2.51333576E-04
 -1.69786035E+00  1.92388293E+00  3.30008733E+00 -1.73737074E+00  1.92305523E+00
 -3.30083755E+00 -1.73772790E+00
Number of symbols in /Mol/                 I                0
Force Field                                I                0
Atom Types                                 C   N=          14
                                                            
                                                            
                                                
Int Atom Types                             I   N=          14
           0           0           0           0           0           0
           0           0           0           0           0           0
           0           0
MM charges                                 R   N=          14
  0.00000000E+00  0.00000000E+00  0.00000000E+00  0.00000000E+00  0.00000000E+00
  0.00000000E+00  0.00000000E+00  0.00000000E+00  0.00000000E+00  0.00000000E+00
  0.00000000E+00  0.00000000E+00  0.00000000E+00  0.00000000E+00
Integer atomic weights                     I   N=          14
          48          12          12          12          12          12
           1           1           1           1           1          35
          35          35
Real atomic weights                        R   N=          14
  4.79479467E+01  1.20000000E+01  1.20000000E+01  1.20000000E+01  1.20000000E+01
  1.20000000E+01  1.00782504E+00  1.00782504E+00  1.00782504E+00  1.00782504E+00
  1.00782504E+00  3.49688527E+01  3.49688527E+01  3.49688527E+01
Atom fragment info                         I   N=          14
           0           0           0           0           0           0
           0           0           0           0           0           0
           0           0
Atom residue num                           I   N=          14
           0           0           0           0           0           0
           0           0           0           0           0           0
           0           0
Nuclear spins                              I   N=          14
           0           0           0           0           0           0
           1           1           1           1           1           3
           3           3
Nuclear ZEff                               R   N=          14
 -2.39800000E+01 -3.60000000E+00 -3.60000000E+00 -3.60000000E+00 -3.60000000E+00
 -3.60000000E+00 -1.00000000E+00 -1.00000000E+00 -1.00000000E+00 -1.00000000E+00
 -1.00000000E+00 -1.42400000E+01 -1.42400000E+01 -1.42400000E+01
Nuclear ZNuc                               R   N=          14
  2.20000000E+01  6.00000000E+00  6.00000000E+00  6.00000000E+00  6.00000000E+00
  6.00000000E+00  1.00000000E+00  1.00000000E+00  1.00000000E+00  1.00000000E+00
  1.00000000E+00  1.70000000E+01  1.70000000E+01  1.70000000E+01
Nuclear QMom                               R   N=          14
  0.00000000E+00  0.00000000E+00  0.00000000E+00  0.00000000E+00  0.00000000E+00
  0.00000000E+00  0.00000000E+00  0.00000000E+00  0.00000000E+00  0.00000000E+00
  0.00000000E+00 -8.16500000E+00 -8.16500000E+00 -8.16500000E+00
Nuclear GFac                               R   N=          14
  0.00000000E+00  0.00000000E+00  0.00000000E+00  0.00000000E+00  0.00000000E+00
  0.00000000E+00  2.79284600E+00  2.79284600E+00  2.79284600E+00  2.79284600E+00
  2.79284600E+00  8.21874000E-01  8.21874000E-01  8.21874000E-01
MicOpt                                     I   N=          14
          -1          -1          -1          -1          -1          -1
          -1          -1          -1          -1          -1          -1
          -1          -1
Number of residues                         I                0
Number of secondary structures             I                0
Number of contracted shells                I               53
Number of primitive shells                 I              153
Pure/Cartesian d shells                    I                1
Pure/Cartesian f shells                    I                1
Highest angular momentum                   I                3
Largest degree of contraction              I                6
Shell types                                I   N=          53
           0          -1          -1          -1          -1           2
           2           3           0          -1          -1           2
           0          -1          -1           2           0          -1
          -1           2           0          -1          -1           2
           0          -1          -1           2           0           0
           0           0           0           0           0           0
           0           0           0          -1          -1          -1
           2           0          -1          -1          -1           2
           0          -1          -1          -1           2
Number of primitives per shell             I   N=          53
           6           6           6           3           1           3
           1           1           6           3           1           1
           6           3           1           1           6           3
           1           1           6           3           1           1
           6           3           1           1           3           1
           3           1           3           1           3           1
           3           1           6           6           3           1
           1           6           6           3           1           1
           6           6           3           1           1
Shell to atom map                          I   N=          53
           1           1           1           1           1           1
           1           1           2           2           2           2
           3           3           3           3           4           4
           4           4           5           5           5           5
           6           6           6           6           7           7
           8           8           9           9          10          10
          11          11          12          12          12          12
          12          13          13          13          13          13
          14          14          14          14          14
Primitive exponents                        R   N=         153
  4.31529500E+04  6.47957100E+03  1.47567500E+03  4.15699100E+02  1.33000600E+02
  4.52722200E+01  8.74682600E+02  2.07978500E+02  6.68791800E+01  2.48734700E+01
  9.96844100E+00  4.06382600E+00  3.36436300E+01  1.08756500E+01  4.62822500E+00
  1.95012600E+00  8.09452000E-01  3.20474000E-01  1.22414800E+00  4.84263000E-01
  8.40960000E-02  3.20360000E-02  1.36908500E+01  3.51315400E+00  1.04043400E+00
  2.86962000E-01  8.00000000E-01  3.04752488E+03  4.57369518E+02  1.03948685E+02
  2.92101553E+01  9.28666296E+00  3.16392696E+00  7.86827235E+00  1.88128854E+00
  5.44249258E-01  1.68714478E-01  8.00000000E-01  3.04752488E+03  4.57369518E+02
  1.03948685E+02  2.92101553E+01  9.28666296E+00  3.16392696E+00  7.86827235E+00
  1.88128854E+00  5.44249258E-01  1.68714478E-01  8.00000000E-01  3.04752488E+03
  4.57369518E+02  1.03948685E+02  2.92101553E+01  9.28666296E+00  3.16392696E+00
  7.86827235E+00  1.88128854E+00  5.44249258E-01  1.68714478E-01  8.00000000E-01
  3.04752488E+03  4.57369518E+02  1.03948685E+02  2.92101553E+01  9.28666296E+00
  3.16392696E+00  7.86827235E+00  1.88128854E+00  5.44249258E-01  1.68714478E-01
  8.00000000E-01  3.04752488E+03  4.57369518E+02  1.03948685E+02  2.92101553E+01
  9.28666296E+00  3.16392696E+00  7.86827235E+00  1.88128854E+00  5.44249258E-01
  1.68714478E-01  8.00000000E-01  1.87311370E+01  2.82539436E+00  6.40121692E-01
  1.61277759E-01  1.87311370E+01  2.82539436E+00  6.40121692E-01  1.61277759E-01
  1.87311370E+01  2.82539436E+00  6.40121692E-01  1.61277759E-01  1.87311370E+01
  2.82539436E+00  6.40121692E-01  1.61277759E-01  1.87311370E+01  2.82539436E+00
  6.40121692E-01  1.61277759E-01  2.51801000E+04  3.78035000E+03  8.60474000E+02
  2.42145000E+02  7.73349000E+01  2.62470000E+01  4.91765000E+02  1.16984000E+02
  3.74153000E+01  1.37834000E+01  5.45215000E+00  2.22588000E+00  3.18649000E+00
  1.14427000E+00  4.20377000E-01  1.42657000E-01  7.50000000E-01  2.51801000E+04
  3.78035000E+03  8.60474000E+02  2.42145000E+02  7.73349000E+01  2.62470000E+01
  4.91765000E+02  1.16984000E+02  3.74153000E+01  1.37834000E+01  5.45215000E+00
  2.22588000E+00  3.18649000E+00  1.14427000E+00  4.20377000E-01  1.42657000E-01
  7.50000000E-01  2.51801000E+04  3.78035000E+03  8.60474000E+02  2.42145000E+02
  7.73349000E+01  2.62470000E+01  4.91765000E+02  1.16984000E+02  3.74153000E+01
  1.37834000E+01  5.45215000E+00  2.22588000E+00  3.18649000E+00  1.14427000E+00
  4.20377000E-01  1.42657000E-01  7.50000000E-01
Contraction coefficients                   R   N=         153
  1.79187198E-03  1.37239198E-02  6.76282991E-02  2.33764197E-01  4.81069594E-01
  3.46227995E-01  2.43100805E-03  3.23302707E-02  1.24252003E-01 -3.90390509E-02
 -6.17178913E-01 -4.47309710E-01 -2.94035796E-03  7.16310289E-02  2.52891496E-01
 -2.96640096E-01 -7.43221489E-01 -1.85351997E-01  6.35146072E-02  3.15140187E-01
 -1.16259422E+00  1.00000000E+00  8.58941788E-02  3.78467095E-01  7.16123890E-01
  1.00000000E+00  1.00000000E+00  1.83473713E-03  1.40373228E-02  6.88426223E-02
  2.32184443E-01  4.67941348E-01  3.62311985E-01 -1.19332420E-01 -1.60854152E-01
  1.14345644E+00  1.00000000E+00  1.00000000E+00  1.83473713E-03  1.40373228E-02
  6.88426223E-02  2.32184443E-01  4.67941348E-01  3.62311985E-01 -1.19332420E-01
 -1.60854152E-01  1.14345644E+00  1.00000000E+00  1.00000000E+00  1.83473713E-03
  1.40373228E-02  6.88426223E-02  2.32184443E-01  4.67941348E-01  3.62311985E-01
 -1.19332420E-01 -1.60854152E-01  1.14345644E+00  1.00000000E+00  1.00000000E+00
  1.83473713E-03  1.40373228E-02  6.88426223E-02  2.32184443E-01  4.67941348E-01
  3.62311985E-01 -1.19332420E-01 -1.60854152E-01  1.14345644E+00  1.00000000E+00
  1.00000000E+00  1.83473713E-03  1.40373228E-02  6.88426223E-02  2.32184443E-01
  4.67941348E-01  3.62311985E-01 -1.19332420E-01 -1.60854152E-01  1.14345644E+00
  1.00000000E+00  1.00000000E+00  3.34946043E-02  2.34726953E-01  8.13757326E-01
  1.00000000E+00  3.34946043E-02  2.34726953E-01  8.13757326E-01  1.00000000E+00
  3.34946043E-02  2.34726953E-01  8.13757326E-01  1.00000000E+00  3.34946043E-02
  2.34726953E-01  8.13757326E-01  1.00000000E+00  3.34946043E-02  2.34726953E-01
  8.13757326E-01  1.00000000E+00  1.83295985E-03  1.40341988E-02  6.90973943E-02
  2.37451980E-01  4.83033960E-01  3.39855972E-01 -2.29739142E-03 -3.07137189E-02
 -1.12528069E-01  4.50163278E-02  5.89353363E-01  4.65206287E-01 -2.51828028E-01
  6.15892514E-02  1.06018433E+00  1.00000000E+00  1.00000000E+00  1.83295985E-03
  1.40341988E-02  6.90973943E-02  2.37451980E-01  4.83033960E-01  3.39855972E-01
 -2.29739142E-03 -3.07137189E-02 -1.12528069E-01  4.50163278E-02  5.89353363E-01
  4.65206287E-01 -2.51828028E-01  6.15892514E-02  1.06018433E+00  1.00000000E+00
  1.00000000E+00  1.83295985E-03  1.40341988E-02  6.90973943E-02  2.37451980E-01
  4.83033960E-01  3.39855972E-01 -2.29739142E-03 -3.07137189E-02 -1.12528069E-01
  4.50163278E-02  5.89353363E-01  4.65206287E-01 -2.51828028E-01  6.15892514E-02
  1.06018433E+00  1.00000000E+00  1.00000000E+00
P(S=P) Contraction coefficients            R   N=         153
  0.00000000E+00  0.00000000E+00  0.00000000E+00  0.00000000E+00  0.00000000E+00
  0.00000000E+00  4.01767930E-03  3.11396623E-02  1.34907710E-01  3.43167225E-01
  4.62576034E-01  2.15460316E-01 -6.31162000E-03 -2.69763800E-02  5.31684700E-02
  3.84554900E-01  5.12766200E-01  1.81113500E-01 -2.11207010E-01  7.77199836E-02
  9.89821446E-01  1.00000000E+00  0.00000000E+00  0.00000000E+00  0.00000000E+00
  0.00000000E+00  0.00000000E+00  0.00000000E+00  0.00000000E+00  0.00000000E+00
  0.00000000E+00  0.00000000E+00  0.00000000E+00  6.89990666E-02  3.16423961E-01
  7.44308291E-01  1.00000000E+00  0.00000000E+00  0.00000000E+00  0.00000000E+00
  0.00000000E+00  0.00000000E+00  0.00000000E+00  0.00000000E+00  6.89990666E-02
  3.16423961E-01  7.44308291E-01  1.00000000E+00  0.00000000E+00  0.00000000E+00
  0.00000000E+00  0.00000000E+00  0.00000000E+00  0.00000000E+00  0.00000000E+00
  6.89990666E-02  3.16423961E-01  7.44308291E-01  1.00000000E+00  0.00000000E+00
  0.00000000E+00  0.00000000E+00  0.00000000E+00  0.00000000E+00  0.00000000E+00
  0.00000000E+00  6.89990666E-02  3.16423961E-01  7.44308291E-01  1.00000000E+00
  0.00000000E+00  0.00000000E+00  0.00000000E+00  0.00000000E+00  0.00000000E+00
  0.00000000E+00  0.00000000E+00  6.89990666E-02  3.16423961E-01  7.44308291E-01
  1.00000000E+00  0.00000000E+00  0.00000000E+00  0.00000000E+00  0.00000000E+00
  0.00000000E+00  0.00000000E+00  0.00000000E+00  0.00000000E+00  0.00000000E+00
  0.00000000E+00  0.00000000E+00  0.00000000E+00  0.00000000E+00  0.00000000E+00
  0.00000000E+00  0.00000000E+00  0.00000000E+00  0.00000000E+00  0.00000000E+00
  0.00000000E+00  0.00000000E+00  0.00000000E+00  0.00000000E+00  0.00000000E+00
  0.00000000E+00  0.00000000E+00  0.00000000E+00  3.98940088E-03  3.03177067E-02
  1.29880029E-01  3.27951072E-01  4.53527100E-01  2.52154056E-01 -1.42993147E-02
  3.23572333E-01  7.43507765E-01  1.00000000E+00  0.00000000E+00  0.00000000E+00
  0.00000000E+00  0.00000000E+00  0.00000000E+00  0.00000000E+00  0.00000000E+00
  3.98940088E-03  3.03177067E-02  1.29880029E-01  3.27951072E-01  4.53527100E-01
  2.52154056E-01 -1.42993147E-02  3.23572333E-01  7.43507765E-01  1.00000000E+00
  0.00000000E+00  0.00000000E+00  0.00000000E+00  0.00000000E+00  0.00000000E+00
  0.00000000E+00  0.00000000E+00  3.98940088E-03  3.03177067E-02  1.29880029E-01
  3.27951072E-01  4.53527100E-01  2.52154056E-01 -1.42993147E-02  3.23572333E-01
  7.43507765E-01  1.00000000E+00  0.00000000E+00
Coordinates of each shell                  R   N=         159
  4.61093176E-03 -2.30546588E-04  3.27054902E-02  4.61093176E-03 -2.30546588E-04
  3.27054902E-02  4.61093176E-03 -2.30546588E-04  3.27054902E-02  4.61093176E-03
 -2.30546588E-04  3.27054902E-02  4.61093176E-03 -2.30546588E-04  3.27054902E-02
  4.61093176E-03 -2.30546588E-04  3.27054902E-02  4.61093176E-03 -2.30546588E-04
  3.27054902E-02  4.61093176E-03 -2.30546588E-04  3.27054902E-02  2.28016056E+00
  2.53223302E-04  3.83736670E+00  2.28016056E+00  2.53223302E-04  3.83736670E+00
  2.28016056E+00  2.53223302E-04  3.83736670E+00  2.28016056E+00  2.53223302E-04
  3.83736670E+00  7.01398310E-01 -2.17424519E+00  3.86447860E+00  7.01398310E-01
 -2.17424519E+00  3.86447860E+00  7.01398310E-01 -2.17424519E+00  3.86447860E+00
  7.01398310E-01 -2.17424519E+00  3.86447860E+00 -1.84520230E+00 -1.34704214E+00
  3.84644684E+00 -1.84520230E+00 -1.34704214E+00  3.84644684E+00 -1.84520230E+00
 -1.34704214E+00  3.84644684E+00 -1.84520230E+00 -1.34704214E+00  3.84644684E+00
 -1.84595630E+00  1.34527336E+00  3.84658479E+00 -1.84595630E+00  1.34527336E+00
  3.84658479E+00 -1.84595630E+00  1.34527336E+00  3.84658479E+00 -1.84595630E+00
  1.34527336E+00  3.84658479E+00  7.00160540E-01  2.17389748E+00  3.86462600E+00
  7.00160540E-01  2.17389748E+00  3.86462600E+00  7.00160540E-01  2.17389748E+00
  3.86462600E+00  7.00160540E-01  2.17389748E+00  3.86462600E+00  4.32371040E+00
  8.25810320E-04  3.74734582E+00  4.32371040E+00  8.25810320E-04  3.74734582E+00
  1.33508395E+00 -4.11526983E+00  3.80137876E+00  1.33508395E+00 -4.11526983E+00
  3.80137876E+00 -3.50089530E+00 -2.54330870E+00  3.76208001E+00 -3.50089530E+00
 -2.54330870E+00  3.76208001E+00 -3.50231259E+00  2.54062718E+00  3.76236158E+00
 -3.50231259E+00  2.54062718E+00  3.76236158E+00  1.33282951E+00  4.11525849E+00
  3.80163954E+00  1.33282951E+00  4.11525849E+00  3.80163954E+00 -3.83094163E+00
  2.51333576E-04 -1.69786035E+00 -3.83094163E+00  2.51333576E-04 -1.69786035E+00
 -3.83094163E+00  2.51333576E-04 -1.69786035E+00 -3.83094163E+00  2.51333576E-04
 -1.69786035E+00 -3.83094163E+00  2.51333576E-04 -1.69786035E+00  1.92388293E+00
  3.30008733E+00 -1.73737074E+00  1.92388293E+00  3.30008733E+00 -1.73737074E+00
  1.92388293E+00  3.30008733E+00 -1.73737074E+00  1.92388293E+00  3.30008733E+00
 -1.73737074E+00  1.92388293E+00  3.30008733E+00 -1.73737074E+00  1.92305523E+00
 -3.30083755E+00 -1.73772790E+00  1.92305523E+00 -3.30083755E+00 -1.73772790E+00
  1.92305523E+00 -3.30083755E+00 -1.73772790E+00  1.92305523E+00 -3.30083755E+00
 -1.73772790E+00  1.92305523E+00 -3.30083755E+00 -1.73772790E+00
Num ILSW                                   I              100
ILSW                                       I   N=         100
           0           1           0           1           2           0
           0           0           0           0        2523          -1
           0           0           0           1           2           0
           0           0           0           0           1           0
           1           1           0           0           0           0
           0           0      100000           0          -1           0
           0           0           0           0           0           0
           0           0           0           1           0           0
           0           0           1           0           0           0
           0           0           4          52           0           0
           0           0          35           0           0           0
           0           0           0          14           0           0
           0           0           0           0           0           0
           0           0           0           0           0           0
           0           0           0           0           0           0
           0           0           0           0           0           0
           0           0           0           0
Num RLSW                                   I               52
RLSW                                       R   N=          52
  9.00000000E-01  9.00000000E-01  1.00000000E+00  1.00000000E+00  1.00000000E-01
  0.00000000E+00  0.00000000E+00  1.00000000E+00  0.00000000E+00  0.00000000E+00
  0.00000000E+00  0.00000000E+00  1.00000000E+00  0.00000000E+00  0.00000000E+00
  0.00000000E+00  0.00000000E+00  1.00000000E+00  0.00000000E+00  0.00000000E+00
  0.00000000E+00  0.00000000E+00  1.00000000E+00  0.00000000E+00  0.00000000E+00
  0.00000000E+00  0.00000000E+00  1.00000000E+00  0.00000000E+00  0.00000000E+00
  0.00000000E+00  0.00000000E+00  1.00000000E+00  0.00000000E+00  0.00000000E+00
  0.00000000E+00  0.00000000E+00  0.00000000E+00  1.00000000E+00  1.00000000E+00
  0.00000000E+00  0.00000000E+00  0.00000000E+00  0.00000000E+00  0.00000000E+00
  0.00000000E+00  0.00000000E+00  0.00000000E+00  0.00000000E+00  0.00000000E+00
  0.00000000E+00  0.00000000E+00
MxBond                                     I                8
NBond                                      I   N=          14
           8           4           4           4           4           4
           1           1           1           1           1           1
           1           1
IBond                                      I   N=         112
           2           3           4           5           6          12
          13          14           1           3           6           7
           0           0           0           0           1           2
           4           8           0           0           0           0
           1           3           5           9           0           0
           0           0           1           4           6          10
           0           0           0           0           1           2
           5          11           0           0           0           0
           2           0           0           0           0           0
           0           0           3           0           0           0
           0           0           0           0           4           0
           0           0           0           0           0           0
           5           0           0           0           0           0
           0           0           6           0           0           0
           0           0           0           0           1           0
           0           0           0           0           0           0
           1           0           0           0           0           0
           0           0           1           0           0           0
           0           0           0           0
RBond                                      R   N=         112
  1.00000000E+00  1.00000000E+00  1.00000000E+00  1.00000000E+00  1.00000000E+00
  1.00000000E+00  1.00000000E+00  1.00000000E+00  1.00000000E+00  1.50000000E+00
  1.50000000E+00  1.00000000E+00  0.00000000E+00  0.00000000E+00  0.00000000E+00
  0.00000000E+00  1.00000000E+00  1.50000000E+00  1.50000000E+00  1.00000000E+00
  0.00000000E+00  0.00000000E+00  0.00000000E+00  0.00000000E+00  1.00000000E+00
  1.50000000E+00  1.50000000E+00  1.00000000E+00  0.00000000E+00  0.00000000E+00
  0.00000000E+00  0.00000000E+00  1.00000000E+00  1.50000000E+00  1.50000000E+00
  1.00000000E+00  0.00000000E+00  0.00000000E+00  0.00000000E+00  0.00000000E+00
  1.00000000E+00  1.50000000E+00  1.50000000E+00  1.00000000E+00  0.00000000E+00
  0.00000000E+00  0.00000000E+00  0.00000000E+00  1.00000000E+00  0.00000000E+00
  0.00000000E+00  0.00000000E+00  0.00000000E+00  0.00000000E+00  0.00000000E+00
  0.00000000E+00  1.00000000E+00  0.00000000E+00  0.00000000E+00  0.00000000E+00
  0.00000000E+00  0.00000000E+00  0.00000000E+00  0.00000000E+00  1.00000000E+00
  0.00000000E+00  0.00000000E+00  0.00000000E+00  0.00000000E+00  0.00000000E+00
  0.00000000E+00  0.00000000E+00  1.00000000E+00  0.00000000E+00  0.00000000E+00
  0.00000000E+00  0.00000000E+00  0.00000000E+00  0.00000000E+00  0.00000000E+00
  1.00000000E+00  0.00000000E+00  0.00000000E+00  0.00000000E+00  0.00000000E+00
  0.00000000E+00  0.00000000E+00  0.00000000E+00  1.00000000E+00  0.00000000E+00
  0.00000000E+00  0.00000000E+00  0.00000000E+00  0.00000000E+00  0.00000000E+00
  0.00000000E+00  1.00000000E+00  0.00000000E+00  0.00000000E+00  0.00000000E+00
  0.00000000E+00  0.00000000E+00  0.00000000E+00  0.00000000E+00  1.00000000E+00
  0.00000000E+00  0.00000000E+00  0.00000000E+00  0.00000000E+00  0.00000000E+00
  0.00000000E+00  0.00000000E+00
Virial Ratio                               R      2.002920406407033E+00
SCF Energy                                 R     -2.423824703027488E+03
Total Energy                               R     -2.423824703027488E+03
RMS Force                                  R      2.494810374113412E-04
RMS Density                                R      3.871073099385866E-09
NImag                                      I                0
Nuclear derivative order                   I                0
External E-field                           R   N=          35
  0.00000000E+00  0.00000000E+00  0.00000000E+00  0.00000000E+00  0.00000000E+00
  0.00000000E+00  0.00000000E+00  0.00000000E+00  0.00000000E+00  0.00000000E+00
  0.00000000E+00  0.00000000E+00  0.00000000E+00  0.00000000E+00  0.00000000E+00
  0.00000000E+00  0.00000000E+00  0.00000000E+00  0.00000000E+00  0.00000000E+00
  0.00000000E+00  0.00000000E+00  0.00000000E+00  0.00000000E+00  0.00000000E+00
  0.00000000E+00  0.00000000E+00  0.00000000E+00  0.00000000E+00  0.00000000E+00
  0.00000000E+00  0.00000000E+00  0.00000000E+00  0.00000000E+00  0.00000000E+00
IOpCl                                      I                0
IROHF                                      I                0
Alpha Orbital Energies                     R   N=         181
 -1.78752680E+02 -1.01373500E+02 -1.01373073E+02 -1.01373072E+02 -1.98704194E+01
 -1.65645701E+01 -1.65644423E+01 -1.65629049E+01 -1.01791167E+01 -1.01790711E+01
 -1.01779978E+01 -1.01776233E+01 -1.01771388E+01 -9.36667944E+00 -9.36631157E+00
 -9.36629933E+00 -7.11157470E+00 -7.11121922E+00 -7.11121307E+00 -7.10918124E+00
 -7.10871718E+00 -7.10871580E+00 -7.10816842E+00 -7.10784920E+00 -7.10784818E+00
 -2.41010439E+00 -1.52581629E+00 -1.52558985E+00 -1.52507112E+00 -9.06328770E-01
 -7.80813394E-01 -7.73172404E-01 -7.72955718E-01 -7.37016419E-01 -7.35139886E-01
 -5.69767053E-01 -5.69635748E-01 -5.53178203E-01 -4.27920577E-01 -4.24977689E-01
 -4.23122871E-01 -4.04241379E-01 -4.04074835E-01 -3.53427198E-01 -3.51619131E-01
 -3.51568210E-01 -3.36145412E-01 -3.35542481E-01 -3.28104016E-01 -3.20952251E-01
 -3.19914493E-01 -2.92603510E-01 -2.67873700E-01 -2.67034561E-01 -1.26108911E-01
 -1.26000179E-01 -1.18882935E-01 -7.28316646E-02 -7.19691864E-02  8.59582880E-03
  9.62128756E-03  1.93109160E-02  4.12402335E-02  4.17588241E-02  5.17311787E-02
  1.08243951E-01  1.36938626E-01  1.37242754E-01  1.62166840E-01  1.69814705E-01
  1.94328482E-01  1.96943237E-01  2.10547354E-01  2.36201608E-01  2.37378169E-01
  2.40212602E-01  3.01437293E-01  3.02396520E-01  3.49601338E-01  3.96269134E-01
  4.24730111E-01  4.24993227E-01  4.50990610E-01  4.65667060E-01  4.66476458E-01
  5.16007066E-01  5.19457859E-01  5.26233610E-01  5.27440644E-01  5.42501385E-01
  5.46906914E-01  5.67039061E-01  5.69942081E-01  5.91719230E-01  5.95651756E-01
  5.95853673E-01  6.34680771E-01  6.49818032E-01  6.54873505E-01  6.84073128E-01
  6.88719499E-01  7.48785368E-01  7.51305127E-01  7.55756096E-01  7.94076943E-01
  7.97818270E-01  8.08697682E-01  8.11360155E-01  8.22485185E-01  8.26404991E-01
  8.33716166E-01  8.37268664E-01  8.53796181E-01  8.59495152E-01  8.66309963E-01
  8.67357923E-01  8.71034596E-01  8.72906093E-01  8.79064456E-01  9.52452769E-01
  9.58330218E-01  9.64474357E-01  1.06173334E+00  1.06507127E+00  1.08000092E+00
  1.10287239E+00  1.10523950E+00  1.11386496E+00  1.18268855E+00  1.22168915E+00
  1.24988679E+00  1.25829301E+00  1.29866322E+00  1.31258077E+00  1.32041999E+00
  1.32112603E+00  1.35931095E+00  1.52950697E+00  1.53191023E+00  1.56885830E+00
  1.62692811E+00  1.63384678E+00  1.70020540E+00  1.81779756E+00  1.83071315E+00
  1.85519785E+00  1.89757414E+00  1.90266502E+00  2.01123032E+00  2.01602376E+00
  2.01877660E+00  2.02587094E+00  2.07130808E+00  2.07712596E+00  2.09765106E+00
  2.09991792E+00  2.12259549E+00  2.16826098E+00  2.17078875E+00  2.21722473E+00
  2.35098607E+00  2.35238495E+00  2.43877779E+00  2.47144980E+00  2.48159739E+00
  2.59377784E+00  2.60189471E+00  2.62337571E+00  2.62742866E+00  2.90770063E+00
  2.90920650E+00  2.91614051E+00  4.29052039E+00  4.30626076E+00  4.30696284E+00
  4.32348848E+00  4.33070041E+00  4.34035853E+00  4.50453057E+00  4.51175001E+00
  5.29621857E+00
Alpha MO coefficients                      R   N=       32761
  9.96520838E-01 -1.20943524E-02 -1.07853309E-07  4.24688245E-11  4.22850902E-06
  2.06549825E-02  1.95701247E-06 -3.67670141E-09 -8.01936161E-07 -7.16201528E-04
  8.89115276E-06 -1.66731822E-08 -2.17821497E-06 -1.70654665E-04 -2.71314085E-07
  5.11929080E-10  4.48253969E-06  8.21063016E-03  8.21156627E-03  8.21008150E-03
 -1.01887561E-09 -7.20068899E-08  1.90282267E-10  2.30806526E-04  2.27339749E-04
  2.24631003E-04  3.87510367E-09 -3.65016188E-08  4.75616657E-10  5.42842542E-07
  2.03467259E-09 -1.31300099E-05 -1.97411801E-06  6.92839890E-11 -2.02795801E-06
 -2.10604376E-07  8.68195429E-10 -3.59963216E-06  1.52657421E-09  1.38731083E-06
 -2.20762243E-05  6.50592419E-06 -1.08938549E-09 -2.41793510E-07 -8.95453535E-05
 -1.39866246E-05  1.07085069E-08  2.74284180E-05  4.21157364E-06  6.85934984E-06
  2.04320533E-05 -3.03388459E-09  1.65243495E-05  2.20632056E-09 -6.07516365E-07