SP        R                             STO-3G
Number of atoms                            I               1
Charge                                     I               0
Multiplicity                               I               2
Number of electrons                        I               1
Number of alpha electrons                  I               2
Number of beta electrons                   I               -1
Atomic numbers                             I   N=           1
           1
Current cartesian coordinates              R   N=           3
  0.00000000e+00  0.00000000e+00  0.00000000e+00
Nuclear charges                            R   N=           1
  1.00000000e+00
Number of basis functions                  I               1
Number of contracted shells                I               1
Number of primitive shells                 I               3
Highest angular momentum                   I               0
Largest degree of contraction              I               3
Shell types                                I   N=           1
           0
Number of primitives per shell             I   N=           1
           3
Shell to atom map                          I   N=           1
           1
Primitive exponents                        R   N=           3
  3.42525091e+00  6.23913730e-01  1.68855400e-01
Contraction coefficients                   R   N=           3
  1.54328971e-01  5.35328142e-01  4.44634542e-01
P(S=P) Contraction coefficients            R   N=           3
  0.00000000e+00  0.00000000e+00  0.00000000e+00
Alpha Orbital Energies                     R   N=           1
 -4.66581850e-01
Total SCF Density                          R   N=           1
 -4.66581850e-01
Alpha MO coefficients                      R   N=           1
  1.00000000e+00
Beta MO coefficients                       R   N=           1
  1.00000000e+00
Beta Orbital Energies                      R   N=           1
  3.08024094e-01
