pirrol                                                                  
Freq      RHF                                                         STO-3G              
Number of atoms                            I               10
Info1-9                                    I   N=           9
          20          19           0           0           0         100
           6           1           2
Full Title                                 C   N=           1
pirrol      
Route                                      C   N=           8
#p HF/STO-3G NOSYMM freq scf=(xqc,direct,MaxConventionalCycl
es=200,MaxCycle=300) gfinput 6D 10F 
Charge                                     I                0
Multiplicity                               I                1
Number of electrons                        I               36
Number of alpha electrons                  I               18
Number of beta electrons                   I               18
Number of basis functions                  I               30
Number of independent functions            I               30
Number of point charges in /Mol/           I                0
Number of translation vectors              I                0
Atomic numbers                             I   N=          10
           1           7           6           6           6           6
           1           1           1           1
Nuclear charges                            R   N=          10
  1.00000000E+00  7.00000000E+00  6.00000000E+00  6.00000000E+00  6.00000000E+00
  6.00000000E+00  1.00000000E+00  1.00000000E+00  1.00000000E+00  1.00000000E+00
Current cartesian coordinates              R   N=          30
  0.00000000E+00  0.00000000E+00  4.02378630E+00  0.00000000E+00  0.00000000E+00
  2.11400639E+00  0.00000000E+00  2.12502727E+00  6.30346498E-01  0.00000000E+00
 -2.12502727E+00  6.30346498E-01  0.00000000E+00  1.33869522E+00 -1.85912580E+00
  0.00000000E+00 -1.33869522E+00 -1.85912580E+00  0.00000000E+00  3.99274943E+00
  1.45602643E+00  0.00000000E+00 -3.99274943E+00  1.45602643E+00  0.00000000E+00
  2.56483457E+00 -3.49426425E+00  0.00000000E+00 -2.56483457E+00 -3.49426425E+00
Number of symbols in /Mol/                 I                0
Force Field                                I                0
Atom Types                                 C   N=          10
                                                            
                                                            
Int Atom Types                             I   N=          10
           0           0           0           0           0           0
           0           0           0           0
MM charges                                 R   N=          10
  0.00000000E+00  0.00000000E+00  0.00000000E+00  0.00000000E+00  0.00000000E+00
  0.00000000E+00  0.00000000E+00  0.00000000E+00  0.00000000E+00  0.00000000E+00
Integer atomic weights                     I   N=          10
           1          14          12          12          12          12
           1           1           1           1
Real atomic weights                        R   N=          10
  1.00782504E+00  1.40030740E+01  1.20000000E+01  1.20000000E+01  1.20000000E+01
  1.20000000E+01  1.00782504E+00  1.00782504E+00  1.00782504E+00  1.00782504E+00
Atom fragment info                         I   N=          10
           0           0           0           0           0           0
           0           0           0           0
Atom residue num                           I   N=          10
           0           0           0           0           0           0
           0           0           0           0
Nuclear spins                              I   N=          10
           1           2           0           0           0           0
           1           1           1           1
Nuclear ZEff                               R   N=          10
 -1.00000000E+00 -4.55000000E+00 -3.60000000E+00 -3.60000000E+00 -3.60000000E+00
 -3.60000000E+00 -1.00000000E+00 -1.00000000E+00 -1.00000000E+00 -1.00000000E+00
Nuclear ZNuc                               R   N=          10
  1.00000000E+00  7.00000000E+00  6.00000000E+00  6.00000000E+00  6.00000000E+00
  6.00000000E+00  1.00000000E+00  1.00000000E+00  1.00000000E+00  1.00000000E+00
Nuclear QMom                               R   N=          10
  0.00000000E+00  2.04400000E+00  0.00000000E+00  0.00000000E+00  0.00000000E+00
  0.00000000E+00  0.00000000E+00  0.00000000E+00  0.00000000E+00  0.00000000E+00
Nuclear GFac                               R   N=          10
  2.79284600E+00  4.03761000E-01  0.00000000E+00  0.00000000E+00  0.00000000E+00
  0.00000000E+00  2.79284600E+00  2.79284600E+00  2.79284600E+00  2.79284600E+00
MicOpt                                     I   N=          10
          -1          -1          -1          -1          -1          -1
          -1          -1          -1          -1
Number of residues                         I                0
Number of secondary structures             I                0
Number of contracted shells                I               15
Number of primitive shells                 I               45
Pure/Cartesian d shells                    I                1
Pure/Cartesian f shells                    I                1
Highest angular momentum                   I                1
Largest degree of contraction              I                3
Shell types                                I   N=          15
           0           0          -1           0          -1           0
          -1           0          -1           0          -1           0
           0           0           0
Number of primitives per shell             I   N=          15
           3           3           3           3           3           3
           3           3           3           3           3           3
           3           3           3
Shell to atom map                          I   N=          15
           1           2           2           3           3           4
           4           5           5           6           6           7
           8           9          10
Primitive exponents                        R   N=          45
  3.42525091E+00  6.23913730E-01  1.68855404E-01  9.91061690E+01  1.80523124E+01
  4.88566024E+00  3.78045588E+00  8.78496645E-01  2.85714374E-01  7.16168373E+01
  1.30450963E+01  3.53051216E+00  2.94124936E+00  6.83483096E-01  2.22289916E-01
  7.16168373E+01  1.30450963E+01  3.53051216E+00  2.94124936E+00  6.83483096E-01
  2.22289916E-01  7.16168373E+01  1.30450963E+01  3.53051216E+00  2.94124936E+00
  6.83483096E-01  2.22289916E-01  7.16168373E+01  1.30450963E+01  3.53051216E+00
  2.94124936E+00  6.83483096E-01  2.22289916E-01  3.42525091E+00  6.23913730E-01
  1.68855404E-01  3.42525091E+00  6.23913730E-01  1.68855404E-01  3.42525091E+00
  6.23913730E-01  1.68855404E-01  3.42525091E+00  6.23913730E-01  1.68855404E-01
Contraction coefficients                   R   N=          45
  1.54328967E-01  5.35328142E-01  4.44634542E-01  1.54328967E-01  5.35328142E-01
  4.44634542E-01 -9.99672292E-02  3.99512826E-01  7.00115469E-01  1.54328967E-01
  5.35328142E-01  4.44634542E-01 -9.99672292E-02  3.99512826E-01  7.00115469E-01
  1.54328967E-01  5.35328142E-01  4.44634542E-01 -9.99672292E-02  3.99512826E-01
  7.00115469E-01  1.54328967E-01  5.35328142E-01  4.44634542E-01 -9.99672292E-02
  3.99512826E-01  7.00115469E-01  1.54328967E-01  5.35328142E-01  4.44634542E-01
 -9.99672292E-02  3.99512826E-01  7.00115469E-01  1.54328967E-01  5.35328142E-01
  4.44634542E-01  1.54328967E-01  5.35328142E-01  4.44634542E-01  1.54328967E-01
  5.35328142E-01  4.44634542E-01  1.54328967E-01  5.35328142E-01  4.44634542E-01
P(S=P) Contraction coefficients            R   N=          45
  0.00000000E+00  0.00000000E+00  0.00000000E+00  0.00000000E+00  0.00000000E+00
  0.00000000E+00  1.55916275E-01  6.07683719E-01  3.91957393E-01  0.00000000E+00
  0.00000000E+00  0.00000000E+00  1.55916275E-01  6.07683719E-01  3.91957393E-01
  0.00000000E+00  0.00000000E+00  0.00000000E+00  1.55916275E-01  6.07683719E-01
  3.91957393E-01  0.00000000E+00  0.00000000E+00  0.00000000E+00  1.55916275E-01
  6.07683719E-01  3.91957393E-01  0.00000000E+00  0.00000000E+00  0.00000000E+00
  1.55916275E-01  6.07683719E-01  3.91957393E-01  0.00000000E+00  0.00000000E+00
  0.00000000E+00  0.00000000E+00  0.00000000E+00  0.00000000E+00  0.00000000E+00
  0.00000000E+00  0.00000000E+00  0.00000000E+00  0.00000000E+00  0.00000000E+00
Coordinates of each shell                  R   N=          45
  0.00000000E+00  0.00000000E+00  4.02378630E+00  0.00000000E+00  0.00000000E+00
  2.11400639E+00  0.00000000E+00  0.00000000E+00  2.11400639E+00  0.00000000E+00
  2.12502727E+00  6.30346498E-01  0.00000000E+00  2.12502727E+00  6.30346498E-01
  0.00000000E+00 -2.12502727E+00  6.30346498E-01  0.00000000E+00 -2.12502727E+00
  6.30346498E-01  0.00000000E+00  1.33869522E+00 -1.85912580E+00  0.00000000E+00
  1.33869522E+00 -1.85912580E+00  0.00000000E+00 -1.33869522E+00 -1.85912580E+00
  0.00000000E+00 -1.33869522E+00 -1.85912580E+00  0.00000000E+00  3.99274943E+00
  1.45602643E+00  0.00000000E+00 -3.99274943E+00  1.45602643E+00  0.00000000E+00
  2.56483457E+00 -3.49426425E+00  0.00000000E+00 -2.56483457E+00 -3.49426425E+00
Num ILSW                                   I              100
ILSW                                       I   N=         100
           0           1           0           0           2           0
           0           0           0           0           0          -1
           0           0           0           1           2           0
           0           0           0           0           1           0
           1           1           0           0           0           0
           0           0      100000           0          -1           0
           0           0           0           0           0           0
           0           0           0           1           0           0
           0           0           1           0           0           0
           0           0           4          52           0           0
           0           0           0           0           0           0
           0           0           0          10           0           0
           0           0           0           0           0           0
           0           0           0           0           0           0
           0           0           0           0           0           0
           0           0           0           0           0           0
           0           0           0           0
Num RLSW                                   I               52
RLSW                                       R   N=          52
  1.00000000E+00  1.00000000E+00  1.00000000E+00  1.00000000E+00  1.00000000E+00
  0.00000000E+00  0.00000000E+00  1.00000000E+00  0.00000000E+00  0.00000000E+00
  0.00000000E+00  0.00000000E+00  1.00000000E+00  0.00000000E+00  0.00000000E+00
  0.00000000E+00  0.00000000E+00  1.00000000E+00  0.00000000E+00  0.00000000E+00
  0.00000000E+00  0.00000000E+00  1.00000000E+00  0.00000000E+00  0.00000000E+00
  0.00000000E+00  0.00000000E+00  1.00000000E+00  0.00000000E+00  0.00000000E+00
  0.00000000E+00  0.00000000E+00  1.00000000E+00  0.00000000E+00  0.00000000E+00
  0.00000000E+00  0.00000000E+00  0.00000000E+00  1.00000000E+00  1.00000000E+00
  0.00000000E+00  0.00000000E+00  0.00000000E+00  0.00000000E+00  0.00000000E+00
  0.00000000E+00  0.00000000E+00  0.00000000E+00  0.00000000E+00  0.00000000E+00
  0.00000000E+00  0.00000000E+00
MxBond                                     I                3
NBond                                      I   N=          10
           1           3           3           3           3           3
           1           1           1           1
IBond                                      I   N=          30
           2           0           0           1           3           4
           2           5           7           2           6           8
           3           6           9           4           5          10
           3           0           0           4           0           0
           5           0           0           6           0           0
RBond                                      R   N=          30
  1.00000000E+00  0.00000000E+00  0.00000000E+00  1.00000000E+00  1.00000000E+00
  1.00000000E+00  1.00000000E+00  1.50000000E+00  1.00000000E+00  1.00000000E+00
  1.50000000E+00  1.00000000E+00  1.50000000E+00  1.50000000E+00  1.00000000E+00
  1.50000000E+00  1.50000000E+00  1.00000000E+00  1.00000000E+00  0.00000000E+00
  0.00000000E+00  1.00000000E+00  0.00000000E+00  0.00000000E+00  1.00000000E+00
  0.00000000E+00  0.00000000E+00  1.00000000E+00  0.00000000E+00  0.00000000E+00
Virial Ratio                               R      2.009222406523869E+00
SCF Energy                                 R     -2.062245649541350E+02
Total Energy                               R     -2.062245649541350E+02
RMS Force                                  R      1.296947603674398E-02
RMS Density                                R      6.310562693038836E-09
NImag                                      I                0
Nuclear derivative order                   I                0
External E-field                           R   N=          35
  0.00000000E+00  0.00000000E+00  0.00000000E+00  0.00000000E+00  0.00000000E+00
  0.00000000E+00  0.00000000E+00  0.00000000E+00  0.00000000E+00  0.00000000E+00
  0.00000000E+00  0.00000000E+00  0.00000000E+00  0.00000000E+00  0.00000000E+00
  0.00000000E+00  0.00000000E+00  0.00000000E+00  0.00000000E+00  0.00000000E+00
  0.00000000E+00  0.00000000E+00  0.00000000E+00  0.00000000E+00  0.00000000E+00
  0.00000000E+00  0.00000000E+00  0.00000000E+00  0.00000000E+00  0.00000000E+00
  0.00000000E+00  0.00000000E+00  0.00000000E+00  0.00000000E+00  0.00000000E+00
IOpCl                                      I                0
IROHF                                      I                0
Alpha Orbital Energies                     R   N=          30
 -1.54095012E+01 -1.10376736E+01 -1.10374565E+01 -1.09866910E+01 -1.09865310E+01
 -1.22506283E+00 -9.75716141E-01 -9.12011330E-01 -7.33164393E-01 -7.04663996E-01
 -6.81614284E-01 -5.27821851E-01 -5.21675806E-01 -5.17240794E-01 -4.81574295E-01
 -4.61828157E-01 -2.80699062E-01 -2.32793084E-01  3.22427133E-01  4.08588188E-01
  5.64070497E-01  6.43265426E-01  6.82528421E-01  6.92985034E-01  7.16547204E-01
  7.78964980E-01  7.94785523E-01  9.70780888E-01  1.04762267E+00  1.14259727E+00
Alpha MO coefficients                      R   N=         900
 -6.43302704E-03  9.93234074E-01  3.29472485E-02 -5.59625976E-16  5.22943017E-16
 -1.08728964E-03  4.82546079E-04 -6.11453923E-03  5.77392728E-16  3.92413503E-03
 -2.68063072E-03  4.82546079E-04 -6.11453923E-03  6.85136388E-16 -3.92413503E-03
 -2.68063072E-03  3.78707889E-06  4.03033794E-04 -2.16188342E-16 -4.47949876E-05
  2.62915755E-04  3.78707889E-06  4.03033794E-04 -4.14942185E-16  4.47949876E-05
  2.62915755E-04  2.41721014E-04  2.41721014E-04 -4.12451346E-05 -4.12451346E-05
  2.42203206E-14 -3.58196989E-14  5.70390290E-13  1.68030509E-16 -4.53710894E-03
 -1.92231309E-13  7.01571665E-01  2.51576540E-02 -2.29437675E-16 -1.69047473E-03
 -3.67060406E-04 -7.01571665E-01 -2.51576540E-02 -5.41331667E-17 -1.69047473E-03
  3.67060406E-04  4.03598897E-03 -4.96651110E-03  6.51862855E-16 -1.04630854E-03
 -2.78770659E-03 -4.03598897E-03  4.96651110E-03 -5.38008242E-16 -1.04630854E-03
  2.78770659E-03 -4.56525043E-03  4.56525043E-03  1.42723215E-04 -1.42723215E-04
 -3.62838680E-04  5.38354011E-04 -8.61531824E-03  2.09261251E-16 -3.00547084E-13
  2.89318896E-03  7.01721678E-01  2.48091802E-02 -4.33128833E-16 -9.95600973E-04
 -1.91372133E-04  7.01721678E-01  2.48091802E-02  5.46525571E-16  9.95600973E-04
 -1.91372133E-04  2.42311800E-03 -4.82831266E-03 -5.47648516E-16 -8.87496938E-04
 -3.13605538E-03  2.42311800E-03 -4.82831266E-03  3.09164620E-16  8.87496938E-04
 -3.13605538E-03 -4.76033266E-03 -4.76033266E-03 -4.01846179E-05 -4.01846180E-05
 -1.28582061E-04  4.13485914E-05  4.08210069E-04 -1.80800687E-16  2.64082035E-14
  1.29529401E-04 -1.83071720E-03 -5.26406167E-03  4.89976837E-16  1.12736014E-03
  3.11492158E-03 -1.83071720E-03 -5.26406167E-03 -4.41003012E-16 -1.12736014E-03
  3.11492158E-03  7.01836743E-01  2.09602537E-02  1.96705766E-16  2.53941647E-03
  1.45209893E-03  7.01836742E-01  2.09602537E-02 -2.72008314E-16 -2.53941647E-03
  1.45209893E-03  2.05705639E-05  2.05705638E-05 -4.62177001E-03 -4.62177001E-03
  1.89828476E-14 -6.23797676E-15 -5.88259788E-14  1.54585510E-16  1.83182875E-04
 -1.91442376E-14 -3.61258686E-03 -5.51150091E-03  5.01195205E-16  8.14939159E-04
  3.17240978E-03  3.61258687E-03  5.51150091E-03 -4.62653626E-16  8.14939159E-04
 -3.17240978E-03  7.01247537E-01  3.07594126E-02  1.02257313E-16 -3.83020489E-03
  1.37599000E-03 -7.01247537E-01 -3.07594127E-02  3.21948005E-16 -3.83020489E-03
 -1.37599000E-03  1.84537634E-04 -1.84537634E-04 -4.76355692E-03  4.76355692E-03
  9.87218477E-02 -1.91980787E-01  6.20919901E-01  1.30709426E-16 -3.05361749E-15
 -6.45368992E-02 -9.60308839E-02  2.16220651E-01 -5.22482109E-16 -8.65513417E-02
  2.58807376E-02 -9.60308839E-02  2.16220651E-01 -2.66895700E-16  8.65513417E-02
  2.58807376E-02 -4.99662922E-02  1.12526919E-01  4.92013363E-17 -1.72379070E-02
  4.49997425E-02 -4.99662922E-02  1.12526919E-01  2.19726241E-17  1.72379070E-02
  4.49997425E-02  3.32679219E-02  3.32679219E-02  1.41654430E-02  1.41654430E-02
  1.52476638E-01 -1.06624734E-01  3.86426323E-01 -6.39703640E-16 -5.59705225E-15
  1.27744465E-01  4.23905891E-02 -1.12044279E-01  3.24875016E-16  6.97279267E-04
  1.40384014E-01  4.23905891E-02 -1.12044279E-01  9.61443848E-16 -6.97279267E-04
  1.40384014E-01  1.46704998E-01 -3.83213325E-01 -7.85855200E-16  7.19244067E-02
 -4.28434752E-02  1.46704998E-01 -3.83213325E-01  9.02112907E-17 -7.19244067E-02
 -4.28434752E-02 -1.54938925E-02 -1.54938925E-02 -8.83765618E-02 -8.83765618E-02
  1.77938444E-15 -3.30102580E-15  1.22751580E-14 -3.37365950E-16  2.58760137E-01
 -1.74872188E-15 -1.53702672E-01  4.30104503E-01 -3.97117073E-16 -1.05769779E-02
 -1.48448775E-02  1.53702672E-01 -4.30104503E-01  2.31913358E-16 -1.05769779E-02
  1.48448775E-02 -7.92121674E-02  2.16989025E-01 -2.04406233E-16  8.12935813E-02
  8.21447619E-02  7.92121674E-02 -2.16989025E-01  3.02149517E-16  8.12935813E-02
 -8.21447619E-02  1.36088981E-01 -1.36088981E-01  6.33211898E-02 -6.33211898E-02
  3.09730595E-01 -4.08311443E-02  1.60680109E-01  1.07659414E-15 -8.70066393E-16
  3.93760025E-01  8.45637949E-02 -2.53973866E-01 -2.49934918E-16  8.32002821E-03
 -7.47260082E-03  8.45637949E-02 -2.53973866E-01 -1.30174117E-15 -8.32002821E-03
 -7.47260082E-03 -7.85578768E-02  2.42260054E-01  6.57656613E-16 -7.58281267E-02
 -1.77603430E-01 -7.85578768E-02  2.42260054E-01  4.93948605E-16  7.58281267E-02
 -1.77603430E-01 -1.04238361E-01 -1.04238361E-01  1.53517315E-01  1.53517315E-01
  4.33834340E-15  3.56070934E-15 -1.31135079E-14 -5.19188547E-16 -3.25359743E-01
  1.28277611E-14  3.52322349E-02 -1.08400834E-01 -7.02289079E-16  4.32553471E-03
 -2.52997244E-01 -3.52322349E-02  1.08400834E-01  2.05890623E-16  4.32553471E-03
  2.52997244E-01 -1.11900569E-01  3.33929478E-01 -1.81959984E-17  1.49062603E-01
 -3.06850019E-02  1.11900569E-01 -3.33929478E-01 -3.65287166E-16  1.49062603E-01
  3.06850019E-02 -1.04425039E-01  1.04425039E-01  2.12556147E-01 -2.12556147E-01
  1.18644944E-01  3.53485853E-02 -1.38770361E-01 -1.45896563E-15  3.47442142E-14
  2.42228669E-01 -6.85618349E-02  2.26667879E-01 -2.29730984E-15  2.90595763E-01
  3.47279891E-02 -6.85618349E-02  2.26667879E-01  1.45289353E-15 -2.90595763E-01
  3.47279891E-02 -4.35400629E-04  1.40089432E-02 -5.94654765E-16  1.52980346E-01
 -3.75064088E-02 -4.35400629E-04  1.40089432E-02  2.39750618E-16 -1.52980346E-01
 -3.75064088E-02  2.84989214E-01  2.84989214E-01  7.98330168E-02  7.98330168E-02
  3.02303758E-01  3.46224968E-02 -1.58517499E-01  7.61568914E-16  3.29311013E-14
  3.90312390E-01 -6.47271148E-03  1.21049674E-02  7.96691182E-16  4.21406346E-02
 -2.30331406E-01 -6.47271148E-03  1.21049674E-02 -2.50671883E-16 -4.21406346E-02
 -2.30331406E-01 -1.42985499E-02  3.80590273E-02  1.46293062E-15 -1.17712999E-01
  3.21938100E-01 -1.42985499E-02  3.80590273E-02 -9.55774859E-17  1.17712999E-01
  3.21938100E-01 -2.79392839E-02 -2.79392839E-02 -2.61630814E-01 -2.61630814E-01
 -2.91364628E-14 -4.25557858E-15  2.05202743E-14  6.12646175E-15  4.44534229E-01
 -4.01288908E-14  2.85459730E-03 -9.07572223E-03  3.14676719E-15 -3.92065133E-01
  8.14490135E-03 -2.85459730E-03  9.07572223E-03  4.45081530E-15 -3.92065133E-01
 -8.14490135E-03 -2.89794751E-02  9.40431310E-02  2.51763035E-15  6.90290055E-03
  1.93652895E-02  2.89794751E-02 -9.40431310E-02  2.71937145E-15  6.90290055E-03
 -1.93652895E-02 -3.42452204E-01  3.42452204E-01  4.11383211E-02 -4.11383211E-02
 -6.44000431E-16  6.05540737E-18  3.96631519E-17  6.24971730E-01 -6.15961921E-15
 -2.25172086E-16 -3.98928978E-16  1.27810015E-15  3.38215456E-01  4.11292356E-15
 -1.04807320E-15  1.84626174E-16 -8.34234456E-16  3.38215456E-01  3.35425968E-15
  2.56627525E-15  2.76990879E-16 -1.00949361E-15  2.21712561E-01 -6.81082876E-16
  1.32610015E-15 -1.73380080E-16  6.69414719E-16  2.21712561E-01  2.01350319E-16
 -2.12779655E-15  4.28809609E-15 -2.08291429E-15 -1.81254622E-15  2.55525323E-15
 -1.67897591E-14 -7.82116695E-16  4.96111581E-15 -2.80698307E-15 -1.93292662E-01
 -1.79037271E-14 -4.30390599E-02  1.47548763E-01 -2.05931426E-15 -6.52071894E-02
 -3.01812759E-01  4.30390599E-02 -1.47548763E-01 -1.64860580E-15 -6.52071894E-02
  3.01812759E-01  5.08489418E-03 -2.42656609E-02 -1.74558333E-15 -5.41926954E-02
  3.66803575E-01 -5.08489418E-03  2.42656609E-02 -1.46373823E-15 -5.41926954E-02
 -3.66803575E-01 -8.12798431E-02  8.12798431E-02 -3.29331520E-01  3.29331520E-01
  7.22205023E-02 -1.49913213E-02  6.92190745E-02  2.51471982E-16 -6.91415723E-15
  3.34409405E-02 -6.05253592E-03  1.97011561E-02  2.24434433E-15 -1.11191681E-01
 -2.44648462E-01 -6.05253592E-03  1.97011561E-02 -2.12843568E-15  1.11191681E-01
 -2.44648462E-01  1.39875883E-02 -5.47643428E-02  2.73390161E-15  4.66863731E-01
  9.26463831E-02  1.39875883E-02 -5.47643428E-02  1.11148615E-15 -4.66863731E-01
  9.26463831E-02 -2.02302423E-01 -2.02302423E-01  1.72331712E-01  1.72331712E-01
  1.03666232E-15  1.77110843E-17 -2.69425582E-16  6.02720927E-01  3.16543520E-16
 -7.00200717E-17 -9.77170162E-17  2.87569373E-16 -6.87575664E-02 -3.59990797E-16
 -3.28475855E-16 -9.59364094E-17  3.25469275E-16 -6.87575664E-02  1.02644946E-17
 -7.88568132E-16 -3.02404286E-18  2.32958167E-17 -5.22155077E-01  1.15122422E-15
 -1.12510592E-16  2.26529475E-17 -1.84232776E-16 -5.22155077E-01 -8.91677714E-16
  2.80538002E-16 -2.06216685E-16  4.39757741E-17  3.12440869E-16  6.24993642E-17
 -2.41211186E-16  8.46786660E-17 -4.91424775E-16 -8.38826761E-15  2.05375623E-16
  2.18965521E-16 -1.30189730E-16  6.82675800E-16  5.84590981E-01  2.62423629E-16
  7.67861768E-16  3.58006352E-18  3.21189127E-16 -5.84590981E-01 -7.52416762E-16
  1.09082207E-15  1.45612593E-17 -3.61457031E-16  3.48713204E-01 -1.20562583E-15
 -1.70211224E-16  1.84217944E-16 -7.51614532E-16 -3.48713204E-01  1.27933018E-15
 -5.99231991E-16  8.25197679E-16  1.47686776E-15  1.19112309E-16  5.44598127E-17
 -8.78751283E-16 -2.21055531E-16  1.50824800E-15 -5.66537355E-01 -3.18971922E-16
 -1.49964963E-17 -6.06594550E-17  3.76113904E-16  6.53364317E-01  4.68901458E-16
 -7.43171574E-16  7.26630375E-17 -5.16343581E-16  6.53364317E-01 -8.04754652E-16
 -7.37342684E-16  1.66119762E-16 -1.00570181E-15 -3.40563283E-01 -4.15352654E-16
 -1.21583846E-16 -9.53859067E-17  4.67536041E-16 -3.40563283E-01  2.79054696E-17
 -1.89149345E-16  7.83247526E-17 -2.11845154E-17  4.10006353E-16 -5.85187785E-16
  7.82266788E-16  2.17759629E-16 -1.46670373E-15  3.87715411E-16 -2.91345782E-16
  9.72620647E-17 -1.34759780E-17 -1.33317094E-16 -4.49191242E-01 -9.75580591E-16
  7.46547935E-16  2.73206570E-17 -4.75131870E-16  4.49191242E-01  1.88648811E-16
  8.77374808E-16  1.27167348E-16 -6.12041431E-16  7.33199442E-01 -9.43246140E-16
  1.07193350E-15  7.56395657E-17 -4.47571113E-16 -7.33199442E-01 -4.63578458E-16
  1.20531925E-15  1.00827883E-15  3.56430763E-16  1.66550132E-15  9.80594569E-16
 -9.44307531E-01 -1.40149324E-01  9.56146851E-01  5.44443100E-16  1.84331762E-14
  4.07709047E-01  1.31909900E-03  3.04265658E-02 -2.17770536E-15  3.68266598E-01
 -9.05624670E-02  1.31909900E-03  3.04265658E-02  3.78889555E-16 -3.68266598E-01
 -9.05624670E-02 -4.65496987E-02  2.88156408E-01  2.36165112E-15  1.18394668E-01
 -1.71685717E-01 -4.65496987E-02  2.88156408E-01 -7.73123808E-16 -1.18394668E-01
 -1.71685717E-01 -2.91243775E-01 -2.91243775E-01 -4.11302429E-01 -4.11302429E-01
  2.81890276E-01  1.25183648E-01 -8.32281619E-01  9.21377848E-17  5.13201926E-14
  1.39909360E-01 -1.46436685E-01  8.96275630E-01 -2.63916501E-16  7.93957992E-02
  3.56336955E-01 -1.46436685E-01  8.96275630E-01 -4.68043721E-16 -7.93957992E-02
  3.56336955E-01  5.52875472E-03 -1.00572856E-02 -1.39842135E-16  1.12304978E-02
 -1.88641292E-01  5.52875472E-03 -1.00572856E-02  1.76472525E-16 -1.12304978E-02
 -1.88641292E-01 -7.22437492E-01 -7.22437492E-01 -1.34156095E-01 -1.34156095E-01
  1.52483664E-13 -8.93808402E-17 -4.06133184E-15 -5.50492120E-17  4.37591059E-01
 -1.59368113E-13 -3.00575639E-02  2.14184889E-01 -4.04957515E-16  6.44742457E-01
 -8.15428900E-02  3.00575639E-02 -2.14184889E-01  5.91980134E-16  6.44742457E-01
  8.15428900E-02  8.19189755E-02 -4.91532368E-01  8.76537377E-16  4.62560623E-01
 -2.26596534E-02 -8.19189755E-02  4.91532368E-01 -9.33734245E-16  4.62560623E-01
  2.26596534E-02 -6.32658561E-01  6.32658561E-01 -2.16117851E-02  2.16117851E-02
 -6.58382573E-01  9.04593856E-03 -4.52834890E-02 -3.04434987E-16  1.92190103E-13
  7.15341568E-01 -2.41104146E-03 -5.22359285E-03  1.07019290E-15 -1.14102692E-01
  4.28917165E-01 -2.41104146E-03 -5.22359285E-03 -1.09993201E-16  1.14102692E-01
  4.28917165E-01  1.44367869E-02 -1.02507967E-01 -7.03389653E-16 -1.17585354E-01
  5.52793641E-01  1.44367869E-02 -1.02507967E-01  9.28530517E-16  1.17585354E-01
  5.52793641E-01 -6.12225912E-02 -6.12225912E-02  5.49527054E-01  5.49527054E-01
  7.13326103E-14 -6.54356114E-15  4.32378267E-14 -6.64278802E-16  5.89492803E-01
 -1.00121123E-13  1.22694456E-01 -7.58013325E-01  5.56157044E-16  1.68036587E-01
  2.63134670E-03 -1.22694456E-01  7.58013325E-01  1.36227637E-15  1.68036587E-01
 -2.63134670E-03 -1.29628109E-01  8.07413588E-01  3.22519227E-17  2.66084294E-01
 -8.15918626E-02  1.29628109E-01 -8.07413588E-01 -9.58945034E-16  2.66084294E-01
  8.15918626E-02  2.57051073E-01 -2.57051073E-01 -6.43494235E-01  6.43494235E-01
 -7.42620739E-14 -3.70433148E-15  3.00167664E-14 -1.31868383E-16 -5.47420132E-01
  7.83109601E-14 -9.12272608E-02  6.08667266E-01  5.21871636E-16  1.41518049E-01
  3.63756838E-01  9.12272608E-02 -6.08667266E-01  6.04753435E-17  1.41518049E-01
 -3.63756838E-01 -9.95851851E-02  6.56078373E-01 -3.00276195E-16 -2.32752898E-01
 -4.12476185E-01  9.95851851E-02 -6.56078373E-01 -1.62291568E-18 -2.32752898E-01
  4.12476185E-01 -5.14144007E-01  5.14144007E-01 -4.74558243E-01  4.74558243E-01
  7.86891556E-02  5.14991601E-02 -3.78679251E-01 -7.04125589E-16 -1.27670214E-13
  5.16301432E-02  6.33477977E-02 -4.29609335E-01  2.49112495E-16 -2.78053560E-01
  5.65205941E-01  6.33477977E-02 -4.29609335E-01  1.68420747E-15  2.78053560E-01
  5.65205941E-01 -1.16436668E-01  7.83294853E-01 -1.10045129E-15  4.97002106E-01
  1.18043844E-01 -1.16436668E-01  7.83294853E-01 -3.83249614E-16 -4.97002106E-01
  1.18043844E-01  2.20816581E-01  2.20816581E-01 -5.23041704E-01 -5.23041704E-01
  2.89653734E-14 -5.20803861E-15  3.93760049E-14  7.47613647E-17 -5.80897932E-01
 -5.47533920E-14  1.23122063E-02 -1.13220886E-01 -2.84540663E-16 -2.36570803E-01
  6.78019321E-01 -1.23122063E-02  1.13220886E-01  4.34725352E-16 -2.36570803E-01
 -6.78019321E-01  6.37771175E-03 -3.39585539E-02  4.51363532E-16  7.71139677E-01
  4.30086708E-01 -6.37771175E-03  3.39585539E-02 -5.02530766E-16  7.71139677E-01
 -4.30086708E-01 -3.74350888E-03  3.74350888E-03 -7.00032085E-02  7.00032085E-02
 -3.93244016E-01  5.92384192E-02 -4.47553075E-01 -1.67748221E-17 -2.08566913E-14
  7.97988286E-01 -6.80756095E-02  4.78954883E-01 -1.83758250E-16 -7.72624504E-01
 -3.21667160E-01 -6.80756095E-02  4.78954883E-01  2.38039497E-16  7.72624504E-01
 -3.21667160E-01  3.94284225E-02 -2.94207400E-01  4.19157459E-16  6.28240897E-03
 -5.10189411E-01  3.94284225E-02 -2.94207400E-01 -3.46341348E-16 -6.28240897E-03
 -5.10189411E-01  3.95070884E-01  3.95070884E-01 -1.79435592E-01 -1.79435592E-01
 -2.37200875E-14  6.35168304E-15 -4.73741032E-14 -1.21293108E-16  1.67794626E-01
  6.06697167E-14  5.53407550E-02 -4.20691714E-01  1.39777717E-16  5.04902020E-01
  4.33915995E-01 -5.53407550E-02  4.20691714E-01 -1.28806392E-16  5.04902020E-01
 -4.33915995E-01 -8.69429403E-02  6.56187724E-01 -1.30025410E-16 -5.59215328E-01
  7.88400995E-01  8.69429403E-02 -6.56187724E-01  1.52022584E-16 -5.59215328E-01
 -7.88400995E-01 -2.67725738E-01  2.67725738E-01  4.07962892E-01 -4.07962892E-01
Total SCF Density                          R   N=         465
  4.79299375E-01 -8.13381498E-02  2.07815967E+00  2.20784429E-01 -2.91359264E-01
  1.22204225E+00  1.09997853E-15 -1.14218800E-15 -1.03640025E-16  1.50772436E+00
  2.98336718E-15  9.14653918E-16  1.81129737E-15 -6.23834301E-16  8.15618247E-01
  5.68439060E-01  6.37557755E-03 -4.13409325E-02  2.08566472E-16  2.35112776E-15
  7.75353944E-01  2.47787698E-02  1.75268264E-02 -5.11357885E-02  5.45650547E-16
 -8.96618873E-02  5.52071364E-02  2.06861653E+00 -8.47913937E-02 -3.42347185E-02
  3.54460327E-02 -1.27134492E-16  2.27786905E-01 -1.35810512E-01 -2.07893771E-01
  7.91317032E-01 -7.65620428E-16  1.22441780E-15 -2.47132171E-16  3.39866948E-01